# vtk DataFile Version 2.1 
Trajects from stack 1 with color option 
ASCII 
 
DATASET POLYDATA POINTS 47046 float 
2.405 0.880 -71.963 
2.358 0.825 -72.176 
-0.122 -0.555 -70.939 
-0.229 -0.538 -71.057 
0.186 0.942 -71.130 
0.155 1.018 -71.265 
-5.186 -1.003 -70.647 
-5.262 -0.977 -70.776 
-1.255 3.527 -68.767 
-1.357 3.627 -68.863 
-8.454 -2.366 -73.819 
-8.591 -2.360 -73.985 
6.839 2.455 -72.496 
6.805 2.491 -72.700 
0.698 6.247 -73.833 
0.739 6.243 -73.942 
-7.186 -3.654 -74.281 
-7.236 -3.624 -74.394 
-6.259 2.724 -68.925 
-6.227 2.843 -69.074 
-6.428 -0.904 -70.345 
-6.433 -0.885 -70.408 
-3.732 -1.574 -73.407 
-3.748 -1.627 -73.549 
-3.931 -5.314 -71.208 
-4.009 -5.201 -71.299 
0.602 -5.095 -70.503 
0.646 -5.036 -70.494 
-0.894 8.571 -73.412 
-0.767 8.698 -73.541 
-9.703 -2.309 -70.885 
-9.828 -2.276 -70.955 
-10.006 3.380 -71.731 
-9.959 3.409 -71.662 
4.962 8.834 -68.834 
4.886 8.878 -68.971 
3.035 -5.408 -71.608 
3.068 -5.405 -71.736 
5.733 0.724 -66.439 
5.680 0.767 -66.475 
-3.924 10.496 -72.605 
-3.880 10.492 -72.880 
-8.331 -8.194 -71.414 
-8.232 -8.050 -71.305 
8.408 -3.638 -73.152 
8.531 -3.760 -73.226 
-7.198 8.383 -74.456 
-7.254 8.392 -74.552 
-4.908 0.015 -69.549 
-4.945 0.201 -69.791 
-2.219 1.918 -66.840 
-2.230 2.181 -66.996 
-5.873 10.168 -66.531 
-5.863 10.469 -66.617 
-9.927 6.178 -70.586 
-9.966 6.261 -70.656 
4.657 0.996 -69.033 
4.535 1.048 -69.230 
1.690 -4.254 -70.815 
1.719 -4.246 -70.859 
7.163 4.290 -69.036 
7.093 4.277 -69.226 
10.611 3.553 -74.002 
10.548 3.432 -74.198 
8.842 12.540 -69.177 
8.862 12.725 -69.350 
-5.122 11.901 -67.838 
-5.079 11.963 -67.955 
8.955 8.955 -67.665 
8.795 9.039 -67.876 
-0.953 9.768 -65.336 
-0.947 9.834 -65.441 
-7.383 -4.424 -70.004 
-7.373 -4.370 -70.020 
-5.461 -9.767 -71.798 
-5.491 -9.631 -71.785 
3.505 4.616 -68.080 
3.416 4.626 -68.199 
9.383 6.260 -72.030 
9.313 6.288 -72.180 
-11.675 -8.524 -73.016 
-11.604 -8.488 -72.834 
3.530 5.039 -63.276 
3.350 5.142 -63.243 
-2.772 -12.395 -73.728 
-2.674 -12.335 -73.783 
-9.667 6.663 -71.884 
-9.660 6.749 -71.921 
1.794 4.864 -67.339 
1.685 4.919 -67.386 
4.818 3.572 -66.655 
4.725 3.563 -66.727 
-7.241 5.594 -70.566 
-7.263 5.566 -70.654 
12.233 11.049 -72.744 
12.271 11.010 -72.922 
3.629 8.940 -68.964 
3.637 8.931 -69.167 
-13.555 -3.909 -74.570 
-13.605 -3.941 -74.600 
-5.568 6.630 -73.784 
-5.608 6.623 -73.920 
1.641 3.210 -66.457 
1.562 3.293 -66.587 
16.026 0.759 -71.469 
15.984 0.905 -71.544 
4.669 10.007 -66.781 
4.786 10.128 -66.930 
14.605 1.462 -68.649 
14.454 1.622 -68.738 
0.778 -8.607 -69.231 
0.816 -8.518 -69.280 
4.670 -11.179 -70.012 
4.619 -11.324 -70.064 
6.535 -1.470 -69.240 
6.556 -1.411 -69.393 
1.909 8.396 -75.621 
1.941 8.513 -75.761 
7.702 -0.360 -66.230 
7.630 -0.289 -66.166 
-3.128 7.386 -76.924 
-3.123 7.410 -76.987 
1.365 11.341 -67.168 
1.430 11.418 -67.244 
4.837 2.089 -69.727 
4.813 2.056 -69.810 
4.108 -2.096 -73.836 
4.233 -2.146 -73.944 
6.889 11.064 -69.728 
6.874 11.163 -69.862 
5.176 -1.023 -65.271 
5.135 -0.979 -65.281 
-4.572 -6.590 -71.976 
-4.578 -6.501 -71.934 
1.441 -6.863 -71.179 
1.368 -6.855 -71.179 
-2.897 7.667 -67.588 
-2.934 7.724 -67.805 
-12.377 1.981 -69.749 
-12.386 2.002 -69.711 
2.310 0.563 -66.381 
2.312 0.673 -66.458 
2.237 -1.200 -67.489 
2.378 -1.086 -67.663 
-11.187 -4.175 -68.274 
-11.266 -4.011 -68.246 
1.616 -2.825 -73.663 
1.610 -2.785 -73.829 
6.343 12.975 -66.159 
6.379 13.159 -66.338 
-9.435 -4.496 -71.116 
-9.551 -4.375 -71.129 
-12.150 -11.488 -71.259 
-12.202 -11.384 -71.051 
-7.557 6.605 -66.511 
-7.455 6.753 -66.534 
14.964 4.432 -67.179 
14.810 4.447 -67.144 
5.991 -2.860 -65.114 
6.010 -2.748 -65.192 
-10.103 1.577 -70.254 
-10.064 1.604 -70.369 
0.818 -0.685 -65.522 
0.890 -0.586 -65.617 
-11.250 0.801 -62.422 
-11.242 1.084 -62.412 
3.971 -2.008 -71.207 
4.006 -2.050 -71.448 
13.997 -2.313 -66.443 
13.956 -2.164 -66.571 
13.981 5.646 -69.768 
13.845 5.817 -69.785 
-6.648 -3.718 -65.139 
-6.535 -3.412 -65.173 
12.859 -3.250 -66.898 
12.888 -3.168 -67.037 
-9.185 8.532 -64.185 
-9.165 8.735 -64.090 
-3.598 6.214 -72.518 
-3.478 6.401 -72.694 
-7.845 12.467 -69.518 
-7.800 12.396 -69.615 
-9.477 -12.137 -73.052 
-9.379 -12.041 -72.978 
-2.748 8.801 -65.581 
-2.653 8.929 -65.743 
-1.102 5.109 -62.273 
-1.182 5.380 -62.298 
2.156 12.408 -70.109 
2.323 12.452 -70.298 
-6.795 -2.258 -71.899 
-6.940 -2.230 -72.079 
-11.535 -4.494 -74.748 
-11.548 -4.564 -74.843 
-11.009 -0.857 -66.383 
-11.050 -0.776 -66.332 
7.532 8.692 -63.650 
7.556 8.818 -63.854 
-7.202 4.342 -72.838 
-7.041 4.359 -72.902 
9.868 -6.872 -69.139 
9.914 -6.857 -69.150 
-10.289 -7.725 -70.298 
-10.317 -7.591 -70.234 
5.887 -9.266 -67.503 
5.850 -9.192 -67.498 
6.407 2.489 -69.823 
6.354 2.500 -70.090 
-3.171 -7.440 -69.708 
-3.026 -7.203 -69.764 
16.125 -0.761 -68.798 
16.000 -0.652 -68.957 
-3.710 -1.330 -64.082 
-3.766 -1.176 -64.165 
3.511 -8.940 -68.480 
3.563 -8.851 -68.571 
11.558 -8.903 -69.019 
11.662 -8.713 -69.061 
14.292 -8.695 -68.761 
14.261 -8.637 -68.835 
7.608 -1.039 -64.044 
7.615 -0.878 -63.984 
3.708 8.967 -66.105 
3.823 9.089 -66.197 
12.400 2.941 -66.124 
12.143 2.954 -66.131 
7.783 7.593 -65.912 
7.654 7.631 -65.993 
-8.634 -5.249 -65.796 
-8.587 -5.103 -65.764 
11.103 -6.668 -70.112 
11.141 -6.715 -70.273 
3.638 -1.946 -71.535 
3.701 -1.962 -71.680 
-2.130 2.439 -60.132 
-2.131 2.685 -60.209 
-11.271 -1.276 -73.544 
-11.295 -1.343 -73.662 
4.906 9.313 -69.440 
4.962 9.324 -69.624 
-4.411 -8.694 -69.612 
-4.305 -8.503 -69.566 
-8.891 11.362 -63.372 
-8.910 11.475 -63.311 
13.826 11.506 -70.749 
13.675 11.603 -70.983 
-4.675 -3.286 -72.230 
-4.747 -3.186 -72.300 
-3.480 9.806 -67.545 
-3.375 9.965 -67.704 
-8.171 9.437 -71.298 
-8.124 9.422 -71.366 
5.444 7.174 -62.540 
5.469 7.336 -62.531 
-1.740 -11.917 -68.991 
-1.689 -11.799 -68.884 
-11.014 10.339 -74.827 
-11.080 10.324 -74.785 
5.506 3.122 -67.797 
5.426 3.131 -67.954 
-5.925 6.410 -60.494 
-5.921 6.760 -60.575 
16.483 7.985 -68.455 
16.239 8.298 -68.306 
-1.422 8.479 -67.030 
-1.461 8.528 -67.289 
8.455 -9.701 -68.107 
8.572 -9.560 -68.109 
-11.068 -7.979 -69.503 
-10.956 -7.728 -69.456 
9.203 -1.965 -65.638 
9.202 -1.840 -65.615 
-1.026 -11.028 -63.595 
-0.758 -10.732 -63.700 
2.122 -6.937 -70.776 
2.066 -6.997 -70.867 
13.357 9.676 -72.128 
13.217 9.785 -72.178 
6.347 -5.472 -66.903 
6.395 -5.330 -66.919 
13.179 4.642 -69.572 
13.053 4.776 -69.641 
4.850 3.620 -71.784 
4.808 3.636 -71.915 
-8.652 7.842 -72.720 
-8.599 7.898 -72.775 
9.436 -1.065 -74.440 
9.535 -1.196 -74.481 
16.788 6.927 -67.286 
16.781 6.933 -67.322 
-4.354 -3.299 -73.898 
-4.430 -3.353 -73.947 
-8.068 6.634 -64.001 
-8.056 6.943 -64.000 
-3.167 -8.951 -72.812 
-3.224 -8.897 -72.858 
-8.336 -11.137 -69.966 
-8.223 -10.921 -69.732 
-2.217 7.275 -72.975 
-1.953 7.401 -73.222 
-0.377 12.299 -66.192 
-0.293 12.336 -66.218 
11.722 -7.716 -69.962 
11.763 -7.632 -70.046 
7.408 -12.638 -69.440 
7.452 -12.477 -69.389 
-1.419 9.021 -68.499 
-1.351 9.048 -68.512 
-11.874 9.788 -70.204 
-11.917 9.769 -70.192 
-14.555 0.048 -69.019 
-14.709 0.110 -69.071 
-4.318 8.370 -63.505 
-4.313 8.554 -63.701 
8.766 0.955 -64.595 
8.570 1.002 -64.630 
-8.805 -0.276 -66.380 
-8.784 -0.166 -66.422 
13.572 -0.911 -62.161 
13.521 -0.863 -62.113 
-8.764 5.013 -65.854 
-8.709 5.181 -65.833 
-13.880 9.087 -69.899 
-13.881 9.022 -69.873 
-1.715 -6.678 -63.383 
-1.540 -6.420 -63.737 
-9.030 3.021 -65.322 
-9.062 3.221 -65.434 
12.890 3.228 -70.665 
12.747 3.319 -70.786 
-9.164 -1.576 -63.828 
-9.081 -1.297 -63.769 
4.751 -2.812 -68.246 
4.758 -2.760 -68.419 
-9.225 -7.029 -70.074 
-9.098 -6.865 -70.069 
5.048 4.157 -64.523 
4.947 4.318 -64.635 
5.157 -3.104 -73.357 
5.263 -3.066 -73.460 
2.848 11.579 -70.974 
2.955 11.655 -71.030 
-11.116 -1.859 -62.484 
-11.103 -1.577 -62.501 
4.830 -10.750 -70.560 
4.803 -10.890 -70.649 
9.443 -2.095 -74.334 
9.551 -2.212 -74.245 
6.557 -6.457 -69.178 
6.579 -6.503 -69.170 
3.866 -11.332 -69.344 
3.781 -11.391 -69.417 
0.022 0.686 -65.165 
0.048 0.807 -65.361 
-2.339 8.254 -78.005 
-2.334 8.234 -78.095 
9.568 8.808 -74.214 
9.435 8.704 -74.480 
2.831 10.823 -70.156 
2.973 10.864 -70.319 
3.829 -1.752 -62.830 
3.843 -1.631 -62.955 
-13.627 -2.295 -70.661 
-13.720 -2.434 -70.775 
9.541 8.841 -65.225 
9.428 8.896 -65.252 
15.046 -8.989 -69.190 
15.034 -8.870 -69.333 
-8.807 6.617 -71.055 
-8.813 6.730 -71.166 
-2.074 10.568 -74.458 
-2.020 10.728 -74.656 
4.557 10.724 -64.659 
4.697 10.880 -64.732 
12.385 -5.028 -72.438 
12.372 -5.026 -72.309 
-11.770 7.873 -69.827 
-11.786 7.849 -69.742 
-9.855 -5.344 -77.725 
-9.844 -5.372 -77.758 
8.733 -2.373 -67.848 
8.808 -2.302 -67.858 
10.955 7.504 -63.807 
10.904 7.604 -63.859 
-2.077 -2.321 -69.301 
-2.049 -2.254 -69.464 
-0.311 1.684 -65.038 
-0.327 1.735 -65.173 
6.200 10.768 -68.445 
6.126 10.929 -68.720 
3.682 2.906 -62.246 
3.652 3.100 -62.249 
-9.626 0.113 -64.843 
-9.585 0.263 -64.911 
8.866 -0.327 -74.088 
9.012 -0.487 -74.136 
-12.492 -0.835 -69.105 
-12.472 -0.949 -69.211 
-13.856 -5.885 -69.781 
-13.980 -5.816 -69.817 
-2.424 8.956 -68.364 
-2.470 9.047 -68.667 
-6.211 -3.583 -71.593 
-6.356 -3.473 -71.701 
-0.579 -1.474 -59.309 
-0.570 -1.264 -59.287 
12.734 7.701 -71.307 
12.583 7.878 -71.367 
-5.621 7.605 -76.849 
-5.718 7.652 -76.741 
-6.103 8.941 -68.998 
-6.123 9.171 -69.023 
-6.400 11.223 -74.032 
-6.356 11.220 -74.140 
1.949 -10.244 -65.435 
2.121 -10.163 -65.344 
9.657 1.485 -69.318 
9.479 1.598 -69.398 
-13.844 -5.384 -67.207 
-13.916 -5.338 -67.029 
-13.621 6.781 -70.995 
-13.718 6.683 -70.904 
11.065 -8.408 -68.425 
11.153 -8.225 -68.449 
9.552 -7.065 -67.230 
9.628 -6.918 -67.238 
11.768 6.951 -69.350 
11.632 7.072 -69.439 
-5.275 10.814 -73.490 
-5.301 10.781 -73.595 
7.182 1.063 -70.945 
6.982 1.078 -71.105 
-11.802 11.473 -73.815 
-11.815 11.543 -73.782 
-7.881 -10.018 -71.084 
-7.784 -9.926 -70.992 
-13.712 -9.311 -69.165 
-13.711 -9.285 -69.017 
2.425 4.787 -76.571 
2.465 4.854 -76.702 
-1.803 -12.820 -68.418 
-1.746 -12.776 -68.357 
[...]
POINT_DATA 47046 
SCALARS Umean double 1 
LOOKUP_TABLE default
0.11248 
0.11248 
0.08010 
0.08010 
0.07900 
0.07900 
0.07598 
0.07598 
0.08605 
0.08605 
0.10766 
0.10766 
0.10496 
0.10496 
0.05826 
0.05826 
0.06358 
0.06358 
0.09668 
0.09668 
0.03300 
0.03300 
0.07621 
0.07621 
0.08236 
0.08236 
0.03707 
0.03707 
0.11057 
0.11057 
0.07351 
0.07351 
0.04419 
0.04419 
0.08136 
0.08136 
0.06611 
0.06611 
0.03858 
0.03858 
0.13926 
0.13926 
0.10298 
0.10298 
0.09419 
0.09419 
0.05575 
0.05575 
0.15373 
0.15373 
0.15299 
0.15299 
0.15660 
0.15660 
0.05768 
0.05768 
0.11874 
0.11874 
0.02665 
0.02665 
0.10145 
0.10145 
0.11940 
0.11940 
0.12704 
0.12704 
0.06961 
0.06961 
0.13890 
0.13890 
0.06208 
0.06208 
0.02860 
0.02860 
0.06994 
0.06994 
0.07447 
0.07447 
0.08394 
0.08394 
0.09932 
0.09932 
0.10500 
0.10500 
0.06370 
0.06370 
0.04694 
0.04694 
0.06541 
0.06541 
0.05898 
0.05898 
0.04747 
0.04747 
0.09307 
0.09307 
0.10168 
0.10168 
0.03326 
0.03326 
0.07097 
0.07097 
0.08665 
0.08665 
0.08471 
0.08471 
0.11240 
0.11240 
0.11866 
0.11866 
0.05424 
0.05424 
0.08113 
0.08113 
0.08266 
0.08266 
0.09262 
0.09262 
0.05984 
0.05984 
0.03380 
0.03380 
0.06311 
0.06311 
0.04624 
0.04624 
0.08630 
0.08630 
0.08364 
0.08364 
0.03048 
0.03048 
0.04930 
0.04930 
0.03672 
0.03672 
0.11370 
0.11370 
0.02217 
0.02217 
0.06714 
0.06714 
0.12565 
0.12565 
0.09209 
0.09209 
0.08543 
0.08543 
0.12961 
0.12961 
0.08406 
0.08406 
0.11915 
0.11915 
0.09060 
0.09060 
0.07932 
0.07932 
0.06890 
0.06890 
0.06220 
0.06220 
0.07748 
0.07748 
0.14164 
0.14164 
0.12356 
0.12356 
0.10033 
0.10033 
0.10957 
0.10957 
0.16398 
0.16398 
0.08198 
0.08198 
0.11251 
0.11251 
0.14173 
0.14173 
0.06418 
0.06418 
0.07794 
0.07794 
0.11364 
0.11364 
0.14183 
0.14183 
0.12801 
0.12801 
0.11641 
0.11641 
0.05936 
0.05936 
0.05206 
0.05206 
0.12049 
0.12049 
0.08704 
0.08704 
0.02481 
0.02481 
0.07556 
0.07556 
0.04144 
0.04144 
0.13622 
0.13622 
0.14171 
0.14171 
0.11488 
0.11488 
0.09184 
0.09184 
0.06875 
0.06875 
0.11032 
0.11032 
0.04950 
0.04950 
0.08598 
0.08598 
0.09562 
0.09562 
0.12871 
0.12871 
0.07850 
0.07850 
0.07834 
0.07834 
0.08599 
0.08599 
0.07945 
0.07945 
0.12889 
0.12889 
0.06890 
0.06890 
0.09632 
0.09632 
0.11162 
0.11162 
0.06491 
0.06491 
0.14745 
0.14745 
0.07086 
0.07086 
0.12408 
0.12408 
0.04201 
0.04201 
0.08208 
0.08208 
0.08363 
0.08363 
0.03983 
0.03983 
0.08822 
0.08822 
0.17964 
0.17964 
0.21196 
0.21196 
0.13323 
0.13323 
0.09162 
0.09162 
0.13942 
0.13942 
0.06355 
0.06355 
0.20644 
0.20644 
0.06127 
0.06127 
0.09217 
0.09217 
0.07537 
0.07537 
0.09823 
0.09823 
0.06925 
0.06925 
0.04736 
0.04736 
0.08462 
0.08462 
0.01858 
0.01858 
0.05266 
0.05266 
0.15462 
0.15462 
0.04550 
0.04550 
0.16895 
0.16895 
0.19143 
0.19143 
0.04770 
0.04770 
0.06284 
0.06284 
0.08726 
0.08726 
0.03716 
0.03716 
0.02426 
0.02426 
0.08698 
0.08698 
0.13444 
0.13444 
0.10229 
0.10229 
0.05980 
0.05980 
0.04245 
0.04245 
0.08901 
0.08901 
0.03501 
0.03501 
0.23585 
0.23585 
0.11572 
0.11572 
0.10413 
0.10413 
0.14850 
0.14850 
0.09039 
0.09039 
0.10374 
0.10374 
0.11030 
0.11030 
0.07630 
0.07630 
0.07135 
0.07135 
0.14141 
0.14141 
0.08404 
0.08404 
0.09121 
0.09121 
0.02581 
0.02581 
0.06331 
0.06331 
0.11590 
0.11590 
0.04617 
0.04617 
0.15753 
0.15753 
0.11002 
0.11002 
0.08727 
0.08727 
0.10120 
0.10120 
0.06427 
0.06427 
0.09321 
0.09321 
0.07926 
0.07926 
0.13012 
0.13012 
0.11098 
0.11098 
0.06483 
0.06483 
0.04488 
0.04488 
0.02233 
0.02233 
0.05188 
0.05188 
0.06186 
0.06186 
0.08922 
0.08922 
0.07260 
0.07260 
0.16357 
0.16357 
0.09816 
0.09816 
0.08486 
0.08486 
0.11093 
0.11093 
0.07847 
0.07847 
0.07320 
0.07320 
0.15985 
0.15985 
0.10582 
0.10582 
0.10567 
0.10567 
0.12014 
0.12014 
0.07629 
0.07629 
0.11611 
0.11611 
0.05833 
0.05833 
0.10539 
0.10539 
0.11275 
0.11275 
0.09872 
0.09872 
0.08260 
0.08260 
0.10224 
0.10224 
0.08284 
0.08284 
0.10131 
0.10131 
0.05655 
0.05655 
0.12828 
0.12828 
0.03924 
0.03924 
0.08114 
0.08114 
0.07513 
0.07513 
0.07624 
0.07624 
0.04719 
0.04719 
0.08250 
0.08250 
0.09450 
0.09450 
0.10057 
0.10057 
0.07737 
0.07737 
0.07858 
0.07858 
0.13510 
0.13510 
0.04589 
0.04589 
0.19088 
0.19088 
0.13576 
0.13576 
0.11126 
0.11126 
0.10335 
0.10335 
0.05581 
0.05581 
0.02182 
0.02182 
0.03683 
0.03683 
0.02374 
0.02374 
0.06139 
0.06139 
0.04751 
0.04751 
0.04009 
0.04009 
0.14191 
0.14191 
0.08339 
0.08339 
0.17392 
0.17392 
0.13367 
0.13367 
0.16030 
0.16030 
0.14311 
0.14311 
0.10945 
0.10945 
0.05592 
0.05592 
0.15535 
0.15535 
0.07812 
0.07812 
0.07670 
0.07670 
0.09916 
0.09916 
0.09327 
0.09327 
0.04859 
0.04859 
0.12850 
0.12850 
0.12727 
0.12727 
0.06174 
0.06174 
0.05587 
0.05587 
0.06720 
0.06720 
0.03799 
0.03799 
0.08514 
0.08514 
0.18155 
0.18155 
0.05520 
0.05520 
0.10199 
0.10199 
0.05095 
0.05095 
0.15595 
0.15595 
0.10251 
0.10251 
0.14166 
0.14166 
0.10125 
0.10125 
0.11584 
0.11584 
0.12096 
0.12096 
0.06645 
0.06645 
0.12505 
0.12505 
0.14069 
0.14069 
0.07379 
0.07379 
0.11623 
0.11623 
0.06675 
0.06675 
0.12409 
0.12409 
0.03581 
0.03581 
0.12031 
0.12031 
0.06559 
0.06559 
0.03930 
0.03930 
0.04437 
0.04437 
0.09575 
0.09575 
0.08471 
0.08471 
0.08488 
0.08488 
0.08297 
0.08297 
0.08600 
0.08600 
0.01984 
0.01984 
0.08945 
0.08945 
0.16896 
0.16896 
0.06030 
0.06030 
0.09944 
0.09944 
0.10980 
0.10980 
0.08505 
0.08505 
0.18015 
0.18015 
0.10329 
0.10329 
0.06305 
0.06305 
0.17491 
0.17491 
0.10132 
0.10132 
0.13195 
0.13195 
0.18894 
0.18894 
0.22639 
0.22639 
0.09133 
0.09133 
0.08387 
0.08387 
0.12340 
0.12340 
0.08516 
0.08516 
0.13977 
0.13977 
0.17704 
0.17704 
0.06148 
0.06148 
0.11996 
0.11996 
0.06491 
0.06491 
0.09482 
0.09482 
0.07629 
0.07629 
0.09723 
0.09723 
0.17949 
0.17949 
0.16099 
0.16099 
0.10556 
0.10556 
0.11072 
0.11072 
0.10722 
0.10722 
0.11959 
0.11959 
0.15892 
0.15892 
0.14606 
0.14606 
0.04401 
0.04401 
0.09961 
0.09961 
0.13731 
0.13731 
0.12379 
0.12379 
0.06140 
0.06140 
0.03286 
0.03286 
0.13366 
0.13366 
0.11669 
0.11669 
0.10248 
0.10248 
0.04756 
0.04756 
0.14389 
0.14389 
0.03045 
0.03045 
0.12226 
0.12226 
0.09113 
0.09113 
0.14978 
0.14978 
0.06175 
0.06175 
0.15061 
0.15061 
0.11159 
0.11159 
0.12633 
0.12633 
0.08919 
0.08919 
0.11359 
0.11359 
0.10956 
0.10956 
0.11842 
0.11842 
0.10344 
0.10344 
0.10310 
0.10310 
0.06758 
0.06758 
0.09699 
0.09699 
0.16251 
0.16251 
0.04250 
0.04250 
0.13733 
0.13733 
0.15673 
0.15673 
0.13463 
0.13463 
0.17305 
0.17305 
0.10152 
0.10152 
0.11605 
0.11605 
0.06207 
0.06207 
0.13260 
0.13260 
0.03004 
0.03004 
0.05039 
0.05039 
0.16386 
0.16386 
0.09558 
0.09558 
0.11533 
0.11533 
0.07637 
0.07637 
0.09562 
0.09562 
0.09488 
0.09488 
0.14984 
0.14984 
0.07862 
0.07862 
0.10021 
0.10021 
0.06536 
0.06536 
0.07567 
0.07567 
0.17417 
0.17417 
0.12491 
0.12491 
0.10311 
0.10311 
0.03872 
0.03872 
0.08533 
0.08533 
0.07123 
0.07123 
0.09238 
0.09238 
0.10784 
0.10784 
0.03659 
0.03659 
0.09867 
0.09867 
0.09842 
0.09842 
0.18238 
0.18238 
0.10603 
0.10603 
0.14192 
0.14192 
0.03841 
0.03841 
0.13580 
0.13580 
0.10730 
0.10730 
0.03966 
0.03966 
0.16668 
0.16668 
0.06354 
0.06354 
0.07577 
0.07577 
0.09021 
0.09021 
0.09480 
0.09480 
0.06298 
0.06298 
0.08651 
0.08651 
0.07275 
0.07275 
0.08515 
0.08515 
0.04832 
0.04832 
0.09130 
0.09130 
0.06533 
0.06533 
0.04550 
0.04550 
0.04286 
0.04286 
0.12942 
0.12942 
0.13146 
0.13146 
0.13367 
0.13367 
0.05163 
0.05163 
0.03504 
0.03504 
0.10854 
0.10854 
0.05618 
0.05618 
0.13516 
0.13516 
0.08284 
0.08284 
0.09368 
0.09368 
0.03740 
0.03740 
0.06849 
0.06849 
0.10564 
0.10564 
0.13760 
0.13760 
0.14333 
0.14333 
0.12763 
0.12763 
0.11192 
0.11192 
0.06929 
0.06929 
0.09095 
0.09095 
0.08448 
0.08448 
0.04910 
0.04910 
0.03800 
0.03800 
0.12282 
0.12282 
0.03776 
0.03776 
0.08754 
0.08754 
0.07218 
0.07218 
0.07165 
0.07165 
0.03934 
0.03934 
0.07640 
0.07640 
0.08284 
0.08284 
0.05721 
0.05721 
0.08637 
0.08637 
0.11614 
0.11614 
0.04385 
0.04385 
0.13578 
0.13578 
0.03291 
0.03291 
0.05519 
0.05519 
0.04966 
0.04966 
0.13941 
0.13941 
0.15295 
0.15295 
0.03761 
0.03761 
0.05264 
0.05264 
0.09267 
0.09267 
0.07521 
0.07521 
0.04143 
0.04143 
0.06573 
0.06573 
0.09057 
0.09057 
0.11802 
0.11802 
0.07619 
0.07619 
0.07541 
0.07541 
0.07188 
0.07188 
0.11790 
0.11790 
0.03326 
0.03326 
0.05360 
0.05360 
0.07418 
0.07418 
0.10003 
0.10003 
0.07935 
0.07935 
0.11658 
0.11658 
0.12029 
0.12029 
0.09267 
0.09267 
0.16203 
0.16203 
0.06605 
0.06605 
0.05427 
0.05427 
0.14436 
0.14436 
0.05054 
0.05054 
0.09266 
0.09266 
0.11974 
0.11974 
0.07718 
0.07718 
0.05426 
0.05426 
0.03408 
0.03408 
0.07930 
0.07930 
0.03306 
0.03306 
0.07102 
0.07102 
0.09212 
0.09212 
0.08069 
0.08069 
0.07869 
0.07869 
0.10563 
0.10563 
0.09712 
0.09712 
0.06223 
0.06223 
0.09613 
0.09613 
0.06979 
0.06979 
0.10994 
0.10994 
0.12044 
0.12044 
0.10155 
0.10155 
0.07343 
0.07343 
0.12815 
0.12815 
0.19088 
0.19088 
0.15328 
0.15328 
0.08581 
0.08581 
0.11363 
0.11363 
0.06897 
0.06897 
0.03669 
0.03669 
0.10089 
0.10089 
0.03258 
0.03258 
0.07443 
0.07443 
0.09458 
0.09458 
0.15203 
0.15203 
0.05428 
0.05428 
0.08715 
0.08715 
0.09816 
0.09816 
0.14205 
0.14205 
0.16400 
0.16400 
0.11512 
0.11512 
0.07401 
0.07401 
0.06800 
0.06800 
0.08359 
0.08359 
0.14200 
0.14200 
0.04944 
0.04944 
0.02501 
0.02501 
0.10326 
0.10326 
0.05630 
0.05630 
0.14331 
0.14331 
0.03161 
0.03161 
0.13558 
0.13558 
0.08847 
0.08847 
0.09500 
0.09500 
0.09469 
0.09469 
0.15945 
0.15945 
0.07333 
0.07333 
0.11877 
0.11877 
0.08810 
0.08810 
0.09078 
0.09078 
0.11524 
0.11524 
0.13110 
0.13110 
0.06542 
0.06542 
0.08693 
0.08693 
0.13612 
0.13612 
0.08552 
0.08552 
0.06821 
0.06821 
0.15488 
0.15488 
0.08000 
0.08000 
0.02536 
0.02536 
0.02239 
0.02239 
0.05604 
0.05604 
0.06442 
0.06442 
0.10345 
0.10345 
0.09087 
0.09087 
0.16465 
0.16465 
0.04469 
0.04469 
0.10812 
0.10812 
0.13362 
0.13362 
0.13567 
0.13567 
0.11329 
0.11329 
0.08385 
0.08385 
0.11186 
0.11186 
0.07906 
0.07906 
0.07445 
0.07445 
0.12507 
0.12507 
0.10738 
0.10738 
0.08534 
0.08534 
0.09625 
0.09625 
0.11803 
0.11803 
0.08731 
0.08731 
0.05172 
0.05172 
0.12592 
0.12592 
0.11095 
0.11095 
0.13100 
0.13100 
0.18618 
0.18618 
0.16425 
0.16425 
0.08624 
0.08624 
0.07203 
0.07203 
0.09893 
0.09893 
0.09947 
0.09947 
0.08908 
0.08908 
0.08818 
0.08818 
0.08060 
0.08060 
0.09166 
0.09166 
0.10898 
0.10898 
0.12659 
0.12659 
0.12561 
0.12561 
0.08137 
0.08137 
0.11618 
0.11618 
0.04175 
0.04175 
0.02839 
0.02839 
0.06242 
0.06242 
0.06550 
0.06550 
0.12214 
0.12214 
0.08228 
0.08228 
0.05686 
0.05686 
0.09586 
0.09586 
0.19041 
0.19041 
0.12965 
0.12965 
0.09704 
0.09704 
0.10868 
0.10868 
0.09600 
0.09600 
0.09141 
0.09141 
0.12046 
0.12046 
0.18740 
0.18740 
0.08951 
0.08951 
0.05236 
0.05236 
0.11546 
0.11546 
0.12912 
0.12912 
0.05666 
0.05666 
0.02665 
0.02665 
0.05776 
0.05776 
0.09554 
0.09554 
0.15791 
0.15791 
0.09766 
0.09766 
0.02531 
0.02531 
0.04503 
0.04503 
0.09957 
0.09957 
0.11849 
0.11849 
0.14561 
0.14561 
0.11574 
0.11574 
0.03965 
0.03965 
0.06261 
0.06261 
0.09095 
0.09095 
0.04314 
0.04314 
0.20675 
0.20675 
0.05981 
0.05981 
0.06703 
0.06703 
0.06796 
0.06796 
0.11044 
0.11044 
0.12309 
0.12309 
0.05758 
0.05758 
0.09976 
0.09976 
0.03218 
0.03218 
0.11981 
0.11981 
0.04573 
0.04573 
0.07300 
0.07300 
0.06404 
0.06404 
0.06483 
0.06483 
0.04927 
0.04927 
0.05126 
0.05126 
0.06420 
0.06420 
0.18983 
0.18983 
0.13176 
0.13176 
0.06644 
0.06644 
0.05327 
0.05327 
0.10917 
0.10917 
0.10926 
0.10926 
0.11548 
0.11548 
0.11905 
0.11905 
0.05501 
0.05501 
0.09133 
0.09133 
0.14388 
0.14388 
0.08935 
0.08935 
0.19497 
0.19497 
0.10436 
0.10436 
0.09477 
0.09477 
0.14335 
0.14335 
0.12925 
0.12925 
0.15831 
0.15831 
0.02494 
0.02494 
0.09164 
0.09164 
0.13756 
0.13756 
0.08864 
0.08864 
0.09164 
0.09164 
0.09234 
0.09234 
0.11566 
0.11566 
0.08312 
0.08312 
0.11172 
0.11172 
0.08006 
0.08006 
0.04115 
0.04115 
0.13989 
0.13989 
0.15440 
0.15440 
0.10896 
0.10896 
0.05900 
0.05900 
0.05315 
0.05315 
0.16228 
0.16228 
0.08200 
0.08200 
0.10346 
0.10346 
0.04217 
0.04217 
0.06141 
0.06141 
0.08601 
0.08601 
0.04366 
0.04366 
0.12751 
0.12751 
0.10012 
0.10012 
0.07234 
0.07234 
0.11824 
0.11824 
0.15384 
0.15384 
0.03167 
0.03167 
0.03349 
0.03349 
0.15927 
0.15927 
0.08066 
0.08066 
0.07675 
0.07675 
0.11538 
0.11538 
0.08466 
0.08466 
0.17277 
0.17277 
0.09098 
0.09098 
0.07023 
0.07023 
0.15249 
0.15249 
0.14006 
0.14006 
0.14481 
0.14481 
0.14870 
0.14870 
0.06198 
0.06198 
0.06294 
0.06294 
0.01739 
0.01739 
0.10279 
0.10279 
0.11723 
0.11723 
0.08043 
0.08043 
0.08293 
0.08293 
0.06022 
0.06022 
0.17386 
0.17386 
0.12956 
0.12956 
0.16481 
0.16481 
0.05208 
0.05208 
0.12634 
0.12634 
0.11704 
0.11704 
0.15838 
0.15838 
0.05481 
0.05481 
0.08265 
0.08265 
0.07856 
0.07856 
0.04821 
0.04821 
0.03598 
0.03598 
0.03824 
0.03824 
0.04033 
0.04033 
0.08106 
0.08106 
0.11662 
0.11662 
0.15986 
0.15986 
0.06075 
0.06075 
0.02774 
0.02774 
0.10979 
0.10979 
0.08902 
0.08902 
0.07450 
0.07450 
0.09523 
0.09523 
0.11580 
0.11580 
0.06830 
0.06830 
0.27506 
0.27506 
0.03156 
0.03156 
0.06480 
0.06480 
0.05823 
0.05823 
0.15141 
0.15141 
0.08212 
0.08212 
0.08506 
0.08506 
0.02494 
0.02494 
0.08868 
0.08868 
0.10565 
0.10565 
0.08228 
0.08228 
0.10902 
0.10902 
0.11980 
0.11980 
0.11318 
0.11318 
0.05725 
0.05725 
0.12322 
0.12322 
0.14853 
0.14853 
0.10024 
0.10024 
0.14745 
0.14745 
0.04598 
0.04598 
0.13334 
0.13334 
0.21842 
0.21842 
0.04009 
0.04009 
0.06019 
0.06019 
0.15884 
0.15884 
0.09682 
0.09682 
0.13182 
0.13182 
0.02889 
0.02889 
0.15723 
0.15723 
0.09459 
0.09459 
0.09571 
0.09571 
0.03109 
0.03109 
0.10318 
0.10318 
0.09496 
0.09496 
0.07869 
0.07869 
0.06107 
0.06107 
0.08401 
0.08401 
0.07707 
0.07707 
0.11009 
0.11009 
0.09256 
0.09256 
0.08923 
0.08923 
0.10978 
0.10978 
0.13434 
0.13434 
0.09791 
0.09791 
0.05013 
0.05013 
0.07379 
0.07379 
0.04752 
0.04752 
0.08549 
0.08549 
0.06555 
0.06555 
0.09995 
0.09995 
0.03652 
0.03652 
0.03296 
0.03296 
0.05418 
0.05418 
0.09386 
0.09386 
0.08791 
0.08791 
0.07901 
0.07901 
0.07897 
0.07897 
0.18824 
0.18824 
0.07151 
0.07151 
0.08820 
0.08820 
0.18018 
0.18018 
0.11124 
0.11124 
0.19989 
0.19989 
0.08913 
0.08913 
0.11926 
0.11926 
0.09335 
0.09335 
0.03845 
0.03845 
0.13313 
0.13313 
0.17960 
0.17960 
0.10734 
0.10734 
0.13674 
0.13674 
0.16054 
0.16054 
0.13097 
0.13097 
0.11262 
0.11262 
0.05269 
0.05269 
0.06451 
0.06451 
0.05151 
0.05151 
0.09825 
0.09825 
0.07844 
0.07844 
0.04517 
0.04517 
0.10339 
0.10339 
0.04829 
0.04829 
0.13144 
0.13144 
0.14398 
0.14398 
0.09557 
0.09557 
0.10171 
0.10171 
0.06886 
0.06886 
0.04190 
0.04190 
0.04061 
0.04061 
0.05104 
0.05104 
0.13025 
0.13025 
0.06525 
0.06525 
0.05125 
0.05125 
0.02847 
0.02847 
0.06920 
0.06920 
0.07422 
0.07422 
0.06436 
0.06436 
0.05572 
0.05572 
0.10171 
0.10171 
0.11018 
0.11018 
0.11078 
0.11078 
0.08073 
0.08073 
0.05659 
0.05659 
0.12759 
0.12759 
0.13636 
0.13636 
0.09565 
0.09565 
0.04243 
0.04243 
0.12434 
0.12434 
0.04977 
0.04977 
0.19618 
0.19618 
0.18044 
0.18044 
0.05925 
0.05925 
0.09484 
0.09484 
0.12311 
0.12311 
0.11720 
0.11720 
0.07655 
0.07655 
0.09715 
0.09715 
0.11581 
0.11581 
0.17614 
0.17614 
0.09260 
0.09260 
0.14182 
0.14182 
0.05696 
0.05696 
0.04828 
0.04828 
0.07600 
0.07600 
0.12768 
0.12768 
0.14766 
0.14766 
0.03813 
0.03813 
0.06661 
0.06661 
0.11005 
0.11005 
0.19350 
0.19350 
0.13158 
0.13158 
0.08707 
0.08707 
0.14002 
0.14002 
0.05763 
0.05763 
0.14705 
0.14705 
0.19928 
0.19928 
0.07172 
0.07172 
0.11634 
0.11634 
0.04393 
0.04393 
0.09138 
0.09138 
0.09399 
0.09399 
0.04890 
0.04890 
0.14913 
0.14913 
0.06271 
0.06271 
0.08517 
0.08517 
0.10041 
0.10041 
0.07579 
0.07579 
0.15717 
0.15717 
0.09089 
0.09089 
0.11543 
0.11543 
0.07683 
0.07683 
0.12636 
0.12636 
0.03447 
0.03447 
0.15424 
0.15424 
0.06850 
0.06850 
0.04536 
0.04536 
0.14124 
0.14124 
0.04656 
0.04656 
0.14975 
0.14975 
0.04276 
0.04276 
0.11556 
0.11556 
0.07519 
0.07519 
0.12814 
0.12814 
0.09951 
0.09951 
0.07287 
0.07287 
0.11359 
0.11359 
0.07309 
0.07309 
0.21426 
0.21426 
0.15013 
0.15013 
0.06768 
0.06768 
0.15235 
0.15235 
0.05774 
0.05774 
0.05712 
0.05712 
0.09163 
0.09163 
0.16003 
0.16003 
0.10325 
0.10325 
0.11909 
0.11909 
0.11856 
0.11856 
0.12543 
0.12543 
0.07622 
0.07622 
0.07184 
0.07184 
0.09405 
0.09405 
0.07822 
0.07822 
0.04358 
0.04358 
0.05339 
0.05339 
0.07564 
0.07564 
0.13850 
0.13850 
0.21652 
0.21652 
0.18283 
0.18283 
0.06030 
0.06030 
0.03523 
0.03523 
0.04672 
0.04672 
0.03157 
0.03157 
0.13189 
0.13189 
0.15167 
0.15167 
0.06890 
0.06890 
0.05176 
0.05176 
0.02142 
0.02142 
0.10417 
0.10417 
0.15890 
0.15890 
0.11645 
0.11645 
0.02528 
0.02528 
0.12686 
0.12686 
0.20324 
0.20324 
0.06777 
0.06777 
0.18045 
0.18045 
0.06588 
0.06588 
0.08809 
0.08809 
0.08063 
0.08063 
0.09762 
0.09762 
0.15522 
0.15522 
0.05220 
0.05220 
0.11437 
0.11437 
0.01444 
0.01444 
0.12006 
0.12006 
0.08752 
0.08752 
0.08156 
0.08156 
0.08164 
0.08164 
0.09024 
0.09024 
0.05948 
0.05948 
0.13687 
0.13687 
0.10118 
0.10118 
0.03500 
0.03500 
0.07118 
0.07118 
0.08494 
0.08494 
0.06660 
0.06660 
0.03221 
0.03221 
0.09499 
0.09499 
0.04544 
0.04544 
0.08969 
0.08969 
0.10313 
0.10313 
0.04993 
0.04993 
0.07453 
0.07453 
0.06933 
0.06933 
0.04584 
0.04584 
0.03400 
0.03400 
0.16829 
0.16829 
0.12015 
0.12015 
0.03239 
0.03239 
0.05292 
0.05292 
0.09458 
0.09458 
0.06504 
0.06504 
0.16092 
0.16092 
0.11599 
0.11599 
0.07492 
0.07492 
0.11245 
0.11245 
0.06608 
0.06608 
0.05375 
0.05375 
0.03861 
0.03861 
0.09222 
0.09222 
0.15316 
0.15316 
0.09313 
0.09313 
0.07591 
0.07591 
0.04276 
0.04276 
0.05866 
0.05866 
0.11948 
0.11948 
0.06990 
0.06990 
0.11108 
0.11108 
0.07646 
0.07646 
0.09233 
0.09233 
0.06330 
0.06330 
0.06627 
0.06627 
0.06907 
0.06907 
0.10702 
0.10702 
0.06438 
0.06438 
0.06561 
0.06561 
0.05872 
0.05872 
0.01032 
0.01032 
0.10709 
0.10709 
0.04145 
0.04145 
0.04439 
0.04439 
0.15198 
0.15198 
0.14691 
0.14691 
0.13329 
0.13329 
0.12209 
0.12209 
0.06559 
0.06559 
0.08472 
0.08472 
0.15576 
0.15576 
0.14293 
0.14293 
0.02788 
0.02788 
0.10706 
0.10706 
0.14368 
0.14368 
0.11139 
0.11139 
0.10587 
0.10587 
0.11482 
0.11482 
0.16699 
0.16699 
0.06610 
0.06610 
0.07924 
0.07924 
0.05160 
0.05160 
0.07109 
0.07109 
0.04185 
0.04185 
0.10240 
0.10240 
0.07978 
0.07978 
0.07517 
0.07517 
0.03635 
0.03635 
0.07761 
0.07761 
0.04807 
0.04807 
0.15102 
0.15102 
0.08884 
0.08884 
0.11218 
0.11218 
0.14981 
0.14981 
0.01444 
0.01444 
0.12600 
0.12600 
0.14233 
0.14233 
0.03483 
0.03483 
0.11082 
0.11082 
0.10071 
0.10071 
0.04902 
0.04902 
0.11186 
0.11186 
0.09079 
0.09079 
0.06836 
0.06836 
0.08032 
0.08032 
0.11265 
0.11265 
0.05595 
0.05595 
0.15964 
0.15964 
0.05492 
0.05492 
0.05875 
0.05875 
0.05045 
0.05045 
0.10137 
0.10137 
0.03897 
0.03897 
0.07093 
0.07093 
0.05526 
0.05526 
0.10151 
0.10151 
0.02376 
0.02376 
0.06575 
0.06575 
0.09345 
0.09345 
0.07486 
0.07486 
0.09551 
0.09551 
0.05412 
0.05412 
0.06623 
0.06623 
0.12075 
0.12075 
0.10970 
0.10970 
0.06539 
0.06539 
0.16132 
0.16132 
0.02773 
0.02773 
0.09745 
0.09745 
0.07422 
0.07422 
0.12013 
0.12013 
0.06527 
0.06527 
0.13176 
0.13176 
0.14578 
0.14578 
0.07705 
0.07705 
0.09034 
0.09034 
0.10049 
0.10049 
0.16579 
0.16579 
0.05799 
0.05799 
0.04279 
0.04279 
0.05348 
0.05348 
0.16796 
0.16796 
0.07332 
0.07332 
0.07396 
0.07396 
0.06217 
0.06217 
0.13259 
0.13259 
0.07622 
0.07622 
0.10447 
0.10447 
0.06203 
0.06203 
0.07529 
0.07529 
0.06324 
0.06324 
0.06997 
0.06997 
0.09307 
0.09307 
0.09755 
0.09755 
0.11082 
0.11082 
0.09377 
0.09377 
0.09845 
0.09845 
0.08132 
0.08132 
0.11365 
0.11365 
0.04342 
0.04342 
0.21883 
0.21883 
0.06389 
0.06389 
0.05622 
0.05622 
0.07097 
0.07097 
0.14645 
0.14645 
0.11015 
0.11015 
0.10184 
0.10184 
0.08236 
0.08236 
0.04555 
0.04555 
0.08190 
0.08190 
0.06995 
0.06995 
0.09210 
0.09210 
0.14022 
0.14022 
0.08100 
0.08100 
0.14600 
0.14600 
0.07971 
0.07971 
0.20190 
0.20190 
0.04357 
0.04357 
0.03418 