# vtk DataFile Version 2.1 
Trajects from stack 4 with color option 
ASCII 
 
DATASET POLYDATA POINTS 42526 float 
3.790 5.036 -71.223 
3.874 5.252 -71.401 
2.111 3.971 -71.374 
2.130 4.221 -71.810 
2.253 7.024 -73.145 
2.421 7.186 -73.320 
0.241 2.182 -71.908 
0.385 2.339 -72.339 
3.613 4.886 -68.472 
3.711 5.094 -68.737 
-6.731 6.720 -69.890 
-6.738 6.933 -70.197 
-0.113 3.063 -69.694 
0.044 3.275 -70.232 
13.740 0.399 -71.173 
13.935 0.640 -71.195 
-10.823 5.266 -75.407 
-10.743 5.403 -75.551 
7.564 7.642 -69.024 
7.630 7.636 -69.108 
-0.664 6.691 -68.263 
-0.638 6.848 -68.340 
1.632 5.615 -70.232 
1.624 5.621 -70.419 
-12.586 -3.219 -73.881 
-12.619 -3.027 -74.137 
8.072 7.889 -73.414 
8.278 8.004 -73.524 
-11.332 -3.216 -73.877 
-11.285 -3.035 -74.076 
0.979 8.178 -72.577 
1.035 8.368 -72.579 
-7.877 4.558 -70.130 
-7.781 4.810 -70.451 
-9.778 6.692 -72.259 
-9.740 7.015 -72.509 
2.963 3.538 -72.767 
3.044 3.806 -72.921 
-1.480 -5.167 -69.924 
-1.433 -4.904 -70.202 
13.894 2.512 -70.338 
13.888 2.820 -70.429 
3.516 -10.881 -72.115 
3.628 -10.766 -72.288 
-2.465 4.260 -68.143 
-2.259 4.395 -68.448 
5.664 -4.228 -77.238 
5.844 -4.170 -77.442 
-3.976 6.380 -67.214 
-4.038 6.518 -67.264 
0.176 -7.394 -68.730 
0.379 -7.300 -68.964 
-0.465 9.673 -72.028 
-0.465 9.815 -72.051 
2.429 12.421 -71.527 
2.264 12.521 -71.483 
-0.721 -2.660 -71.927 
-0.460 -2.575 -72.176 
2.165 2.785 -63.430 
2.534 2.987 -63.631 
-6.964 4.964 -71.932 
-6.933 5.203 -72.298 
5.374 3.523 -71.618 
5.529 3.587 -72.021 
-4.362 0.901 -69.020 
-4.167 1.198 -69.370 
-5.692 10.476 -64.832 
-5.798 10.610 -64.765 
1.069 6.085 -70.387 
1.095 6.159 -70.481 
-1.037 -2.795 -69.638 
-0.792 -2.562 -69.723 
-8.074 4.022 -73.445 
-8.055 4.299 -73.769 
7.552 10.205 -71.639 
7.656 10.257 -71.841 
-8.576 -4.218 -72.333 
-8.589 -4.178 -72.550 
1.028 -1.549 -72.452 
1.038 -1.492 -72.582 
-8.329 -10.030 -68.275 
-8.318 -9.866 -68.366 
-15.847 0.141 -72.751 
-15.929 0.390 -72.977 
-8.549 6.539 -70.184 
-8.603 6.792 -70.503 
9.064 10.284 -68.374 
9.154 10.261 -68.377 
-4.475 9.646 -64.929 
-4.584 9.825 -64.946 
0.330 1.113 -70.351 
0.424 1.400 -70.661 
-9.836 3.829 -68.061 
-9.752 4.077 -68.359 
13.180 2.242 -67.038 
13.217 2.427 -67.143 
4.243 8.519 -69.586 
4.225 8.557 -69.600 
-5.097 5.328 -66.506 
-5.038 5.521 -66.706 
-3.984 1.480 -74.180 
-3.815 1.670 -74.504 
-8.181 -5.841 -69.975 
-8.098 -5.715 -70.232 
-0.392 1.566 -63.988 
-0.267 1.873 -64.277 
3.021 -5.116 -71.067 
3.220 -5.076 -71.256 
-3.477 0.894 -66.658 
-3.354 1.146 -66.958 
-7.938 7.393 -71.230 
-7.886 7.680 -71.534 
-13.234 2.172 -74.898 
-13.190 2.338 -75.172 
-6.852 -2.928 -72.857 
-6.717 -2.745 -72.917 
-9.178 -0.201 -72.064 
-9.063 0.034 -72.232 
3.645 -10.946 -69.461 
3.774 -10.837 -69.552 
-8.548 11.596 -64.638 
-8.583 11.852 -64.885 
4.602 -1.686 -74.233 
4.750 -1.664 -74.566 
-1.646 11.656 -69.094 
-1.702 11.926 -69.075 
-8.732 8.058 -70.762 
-8.742 8.264 -70.999 
11.485 -2.834 -67.840 
11.667 -2.699 -68.052 
0.476 3.154 -67.994 
0.616 3.329 -68.332 
0.251 10.800 -68.558 
0.124 10.917 -68.429 
-0.636 -3.934 -71.639 
-0.405 -3.837 -71.689 
-2.598 -8.433 -67.177 
-2.630 -8.413 -67.420 
-2.915 -0.400 -65.394 
-2.892 -0.155 -65.618 
4.675 10.721 -68.232 
4.627 10.721 -68.106 
1.475 -10.243 -64.892 
1.668 -10.031 -64.815 
-1.107 0.585 -67.846 
-1.110 0.856 -68.150 
4.206 -9.331 -68.579 
4.369 -9.285 -68.639 
-14.686 -6.107 -71.735 
-14.483 -5.830 -72.046 
11.418 7.433 -68.316 
11.439 7.645 -68.395 
-0.545 7.552 -68.033 
-0.594 7.660 -68.045 
0.437 9.330 -71.151 
0.454 9.450 -71.171 
-10.158 10.758 -76.808 
-10.192 11.024 -76.965 
-15.000 -10.805 -74.554 
-14.946 -10.568 -74.648 
5.384 -0.211 -67.455 
5.566 0.012 -68.049 
13.876 4.201 -66.502 
14.011 4.450 -66.601 
-0.649 -6.344 -68.483 
-0.457 -6.184 -68.782 
2.869 -5.864 -66.019 
3.012 -5.865 -66.392 
15.785 2.953 -69.432 
15.833 3.115 -69.481 
3.485 5.605 -65.034 
3.632 5.815 -65.284 
13.746 7.845 -69.025 
13.797 8.007 -69.236 
10.065 9.418 -67.584 
10.064 9.433 -67.639 
-3.073 2.432 -64.748 
-2.846 2.673 -65.157 
-5.801 -3.789 -65.680 
-5.677 -3.603 -66.159 
-10.099 -0.033 -65.788 
-9.938 0.164 -65.876 
0.094 -3.826 -68.317 
0.327 -3.564 -68.591 
-11.931 -7.255 -71.194 
-11.918 -7.197 -71.255 
2.417 -0.699 -69.974 
2.685 -0.477 -70.119 
10.512 12.285 -69.102 
10.604 12.181 -69.069 
2.222 -9.249 -68.408 
2.381 -9.113 -68.433 
-0.125 -1.963 -72.053 
0.046 -1.950 -72.349 
3.234 -9.986 -62.577 
3.220 -9.957 -62.579 
-9.529 11.397 -62.941 
-9.609 11.663 -63.042 
-8.755 -1.832 -67.100 
-8.627 -1.517 -67.403 
10.847 -6.900 -73.668 
11.028 -6.842 -73.781 
-8.279 -3.722 -66.695 
-8.127 -3.449 -67.118 
5.536 -5.636 -64.784 
5.693 -5.508 -65.176 
-7.376 -12.401 -67.142 
-7.293 -12.273 -67.191 
12.835 -4.157 -68.610 
13.012 -4.042 -68.849 
1.193 0.571 -72.360 
1.246 0.720 -72.721 
-5.613 9.566 -62.092 
-5.592 9.843 -61.961 
6.877 0.090 -62.694 
6.928 0.282 -63.131 
2.295 7.790 -66.268 
2.300 7.757 -66.485 
11.476 12.408 -69.338 
11.519 12.131 -69.269 
-3.290 -12.477 -68.498 
-3.108 -12.458 -68.617 
-4.665 -1.779 -63.046 
-4.407 -1.605 -63.358 
-9.087 9.552 -74.294 
-9.036 9.846 -74.351 
-6.976 2.435 -72.137 
-6.978 2.655 -72.517 
-15.430 -3.652 -72.075 
-15.268 -3.266 -72.314 
3.636 -11.272 -64.233 
3.685 -11.174 -64.134 
-4.753 4.379 -62.311 
-4.452 4.516 -62.490 
0.652 -5.818 -75.460 
0.828 -5.664 -75.537 
-7.955 -3.836 -72.985 
-7.942 -3.636 -73.123 
-3.357 -7.549 -67.099 
-3.453 -7.331 -67.400 
4.295 1.754 -64.550 
4.349 2.030 -65.036 
3.511 -2.959 -64.884 
3.712 -2.963 -65.218 
-15.665 2.209 -75.605 
-15.696 2.317 -75.889 
-9.874 -2.956 -68.851 
-9.819 -2.925 -69.041 
2.163 12.400 -64.686 
2.035 12.548 -64.570 
-2.342 -9.158 -70.626 
-2.195 -9.024 -70.899 
-11.289 12.579 -70.967 
-11.154 12.909 -70.799 
3.011 10.565 -68.181 
2.940 10.580 -68.069 
16.665 -1.139 -68.675 
16.635 -0.907 -68.696 
2.016 -7.134 -63.578 
2.022 -7.066 -64.056 
-11.831 2.957 -66.056 
-11.622 3.105 -66.168 
-13.914 7.119 -71.973 
-13.814 7.450 -72.208 
-0.541 7.385 -69.408 
-0.479 7.584 -69.556 
-14.659 -7.389 -71.838 
-14.482 -7.168 -71.972 
3.042 5.112 -64.780 
3.144 5.237 -65.056 
12.077 -3.490 -68.507 
12.274 -3.385 -68.782 
-13.162 7.169 -67.869 
-13.279 7.366 -68.068 
5.063 -7.758 -69.642 
5.261 -7.651 -69.918 
-1.262 -7.627 -70.692 
-1.143 -7.437 -70.862 
-8.165 7.761 -64.918 
-8.225 7.885 -65.035 
-12.963 5.620 -75.897 
-12.976 5.901 -76.113 
-11.290 6.573 -73.637 
-11.212 6.891 -73.860 
-2.711 -11.402 -63.652 
-2.575 -11.470 -63.911 
5.909 1.157 -62.126 
5.866 1.473 -62.397 
7.097 1.750 -64.155 
7.109 1.830 -64.531 
9.028 -9.988 -72.988 
9.182 -9.994 -73.189 
10.225 -12.678 -66.548 
10.214 -12.712 -66.786 
-7.588 -6.030 -73.292 
-7.402 -5.870 -73.511 
-0.897 7.552 -72.779 
-0.773 7.728 -72.832 
9.509 -12.991 -67.589 
9.605 -13.009 -67.737 
-2.099 11.318 -75.540 
-2.112 11.531 -75.636 
14.072 -4.575 -67.361 
14.276 -4.520 -67.609 
5.388 6.182 -70.192 
5.482 6.254 -70.404 
-10.689 1.503 -70.470 
-10.504 1.686 -70.628 
-10.460 8.864 -66.305 
-10.438 8.906 -66.378 
3.336 -8.337 -64.657 
3.333 -8.248 -64.858 
1.143 5.761 -74.036 
1.151 6.028 -74.245 
10.901 -4.435 -66.529 
11.135 -4.463 -67.140 
10.309 -1.979 -65.937 
10.482 -1.992 -66.226 
5.509 0.327 -73.098 
5.717 0.524 -73.484 
-11.185 6.768 -68.671 
-11.233 6.872 -68.962 
12.769 9.601 -72.150 
13.007 9.830 -72.289 
-0.955 10.093 -65.937 
-1.031 10.219 -65.870 
7.050 -5.344 -75.306 
7.102 -5.359 -75.501 
9.046 -3.681 -69.741 
9.205 -3.510 -70.139 
-0.494 -11.406 -74.604 
-0.213 -11.293 -74.761 
-5.813 -7.532 -68.691 
-5.595 -7.503 -69.128 
11.459 5.154 -68.998 
11.538 5.321 -69.056 
3.486 -1.673 -65.819 
3.657 -1.523 -66.030 
2.318 5.648 -64.905 
2.429 5.793 -65.060 
7.491 2.643 -64.250 
7.608 2.642 -64.405 
9.479 -0.733 -68.564 
9.586 -0.757 -68.850 
3.857 7.549 -63.745 
4.024 7.564 -63.786 
6.728 -2.544 -67.769 
6.980 -2.286 -68.292 
-5.918 -9.624 -72.580 
-5.866 -9.694 -72.927 
-6.719 -5.034 -72.354 
-6.718 -4.942 -72.532 
-6.109 -9.200 -69.641 
-5.954 -8.913 -69.718 
-6.546 -4.036 -65.163 
-6.353 -3.943 -65.599 
7.016 2.964 -69.538 
7.344 3.131 -69.903 
14.017 6.448 -74.512 
14.111 6.527 -74.611 
-14.151 -2.133 -76.630 
-14.111 -1.925 -76.679 
-2.429 5.311 -65.754 
-2.240 5.484 -66.019 
8.145 6.578 -63.391 
8.347 6.733 -63.523 
-7.889 3.091 -68.554 
-7.685 3.419 -68.793 
7.988 0.913 -74.645 
8.285 1.094 -75.011 
-4.535 11.097 -69.478 
-4.614 11.238 -69.465 
-10.338 9.974 -68.538 
-10.275 10.068 -68.622 
-10.709 -1.162 -70.913 
-10.605 -1.104 -71.244 
-6.569 -10.616 -71.183 
-6.399 -10.477 -71.242 
14.231 0.530 -67.541 
14.182 0.757 -67.639 
2.385 4.442 -65.867 
2.547 4.595 -66.210 
13.438 -12.555 -67.041 
13.516 -12.556 -67.131 
4.146 5.043 -68.818 
4.309 5.163 -69.081 
8.931 -11.923 -70.413 
9.075 -11.854 -70.535 
0.208 -8.249 -68.349 
0.341 -8.203 -68.633 
-11.177 -10.319 -69.524 
-10.922 -10.136 -69.628 
10.903 -1.031 -73.411 
11.275 -0.937 -73.755 
-1.491 7.975 -66.016 
-1.614 8.073 -65.964 
1.182 -5.700 -62.205 
1.409 -5.701 -62.643 
-5.108 -6.469 -72.179 
-4.931 -6.366 -72.432 
4.613 -1.767 -64.765 
4.711 -1.790 -65.161 
-5.293 7.779 -63.730 
-5.330 7.962 -63.764 
7.858 1.638 -67.663 
8.081 1.841 -68.088 
7.839 11.803 -68.343 
7.751 11.562 -68.539 
-1.452 9.107 -72.828 
-1.576 9.369 -72.923 
-1.056 -2.757 -66.400 
-0.811 -2.402 -66.792 
-10.307 -8.924 -70.939 
-10.127 -8.837 -70.952 
-12.801 5.304 -65.132 
-12.669 5.613 -65.220 
-11.257 -9.867 -62.860 
-11.175 -9.771 -62.870 
7.406 -10.035 -67.453 
7.593 -10.075 -67.446 
-7.754 9.043 -78.229 
-7.790 9.257 -78.364 
15.442 -7.730 -69.381 
15.502 -7.679 -69.448 
-7.368 12.722 -68.313 
-7.373 12.903 -68.239 
11.317 -11.340 -70.209 
11.408 -11.419 -70.351 
-2.902 -2.848 -75.226 
-2.878 -2.720 -75.469 
4.200 5.281 -62.867 
4.372 5.381 -63.060 
9.389 9.213 -68.686 
9.338 9.224 -68.795 
5.760 -1.145 -73.679 
6.033 -1.048 -74.052 
-7.675 7.565 -68.886 
-7.663 7.702 -68.982 
-1.931 -8.333 -59.256 
-2.186 -8.158 -59.638 
9.068 -0.059 -70.307 
9.259 -0.066 -70.766 
[...]
POINT_DATA 42526 
SCALARS Umean double 1 
LOOKUP_TABLE default
0.14611 
0.14611 
0.25147 
0.25147 
0.14585 
0.14585 
0.24039 
0.24039 
0.17542 
0.17542 
0.18686 
0.18686 
0.29960 
0.29960 
0.15539 
0.15539 
0.10713 
0.10713 
0.05350 
0.05350 
0.08839 
0.08839 
0.09363 
0.09363 
0.16085 
0.16085 
0.13015 
0.13015 
0.13654 
0.13654 
0.09905 
0.09905 
0.20962 
0.20962 
0.20511 
0.20511 
0.15977 
0.15977 
0.19278 
0.19278 
0.16061 
0.16061 
0.11800 
0.11800 
0.19601 
0.19601 
0.13909 
0.13909 
0.07967 
0.07967 
0.16186 
0.16186 
0.07193 
0.07193 
0.09895 
0.09895 
0.18530 
0.18530 
0.23311 
0.23311 
0.21911 
0.21911 
0.21825 
0.21825 
0.24937 
0.24937 
0.09176 
0.09176 
0.06121 
0.06121 
0.17431 
0.17431 
0.21335 
0.21335 
0.11654 
0.11654 
0.11052 
0.11052 
0.07115 
0.07115 
0.09394 
0.09394 
0.17306 
0.17306 
0.20536 
0.20536 
0.04647 
0.04647 
0.10513 
0.10513 
0.21639 
0.21639 
0.19835 
0.19835 
0.10796 
0.10796 
0.02216 
0.02216 
0.14207 
0.14207 
0.20594 
0.20594 
0.14901 
0.14901 
0.21988 
0.21988 
0.13867 
0.13867 
0.20532 
0.20532 
0.21065 
0.21065 
0.16168 
0.16168 
0.11759 
0.11759 
0.15546 
0.15546 
0.09592 
0.09592 
0.17872 
0.17872 
0.18254 
0.18254 
0.13820 
0.13820 
0.15709 
0.15709 
0.15516 
0.15516 
0.20277 
0.20277 
0.10777 
0.10777 
0.12774 
0.12774 
0.12296 
0.12296 
0.16638 
0.16638 
0.06742 
0.06742 
0.14843 
0.14843 
0.20363 
0.20363 
0.08984 
0.08984 
0.23166 
0.23166 
0.11361 
0.11361 
0.05960 
0.05960 
0.06142 
0.06142 
0.15537 
0.15537 
0.13031 
0.13031 
0.33003 
0.33003 
0.15002 
0.15002 
0.19485 
0.19485 
0.19974 
0.19974 
0.08796 
0.08796 
0.17903 
0.17903 
0.13543 
0.13543 
0.02851 
0.02851 
0.26310 
0.26310 
0.26430 
0.26430 
0.13460 
0.13460 
0.22249 
0.22249 
0.04259 
0.04259 
0.18850 
0.18850 
0.07136 
0.07136 
0.10536 
0.10536 
0.17105 
0.17105 
0.01613 
0.01613 
0.14778 
0.14778 
0.22772 
0.22772 
0.11056 
0.11056 
0.26295 
0.26295 
0.22062 
0.22062 
0.08012 
0.08012 
0.15943 
0.15943 
0.19706 
0.19706 
0.15357 
0.15357 
0.24002 
0.24002 
0.10978 
0.10978 
0.14434 
0.14434 
0.10914 
0.10914 
0.22033 
0.22033 
0.15189 
0.15189 
0.21955 
0.21955 
0.24102 
0.24102 
0.07383 
0.07383 
0.18802 
0.18802 
0.12311 
0.12311 
0.12167 
0.12167 
0.19193 
0.19193 
0.28075 
0.28075 
0.19492 
0.19492 
0.15271 
0.15271 
0.10011 
0.10011 
0.11374 
0.11374 
0.16889 
0.16889 
0.19707 
0.19707 
0.06673 
0.06673 
0.11744 
0.11744 
0.24142 
0.24142 
0.13976 
0.13976 
0.20904 
0.20904 
0.12782 
0.12782 
0.15663 
0.15663 
0.15985 
0.15985 
0.17710 
0.17710 
0.15174 
0.15174 
0.17807 
0.17807 
0.14068 
0.14068 
0.09037 
0.09037 
0.17733 
0.17733 
0.19808 
0.19808 
0.15017 
0.15017 
0.20925 
0.20925 
0.19230 
0.19230 
0.12664 
0.12664 
0.12033 
0.12033 
0.16444 
0.16444 
0.11086 
0.11086 
0.08866 
0.08866 
0.11700 
0.11700 
0.16290 
0.16290 
0.12141 
0.12141 
0.15222 
0.15222 
0.04352 
0.04352 
0.10992 
0.10992 
0.16958 
0.16958 
0.32744 
0.32744 
0.16854 
0.16854 
0.24035 
0.24035 
0.15637 
0.15637 
0.17917 
0.17917 
0.08084 
0.08084 
0.10119 
0.10119 
0.23072 
0.23072 
0.17057 
0.17057 
0.24461 
0.24461 
0.09682 
0.09682 
0.15513 
0.15513 
0.11976 
0.11976 
0.09710 
0.09710 
0.15315 
0.15315 
0.08631 
0.08631 
0.31765 
0.31765 
0.17889 
0.17889 
0.10019 
0.10019 
0.16757 
0.16757 
0.24290 
0.24290 
0.25918 
0.25918 
0.07886 
0.07886 
0.10870 
0.10870 
0.18431 
0.18431 
0.14340 
0.14340 
0.22711 
0.22711 
0.25245 
0.25245 
0.08107 
0.08107 
0.07046 
0.07046 
0.17588 
0.17588 
0.11369 
0.11369 
0.12603 
0.12603 
0.20451 
0.20451 
0.05955 
0.05955 
0.16594 
0.16594 
0.10048 
0.10048 
0.15848 
0.15848 
0.16533 
0.16533 
0.25766 
0.25766 
0.08282 
0.08282 
0.24666 
0.24666 
0.16275 
0.16275 
0.20430 
0.20430 
0.09489 
0.09489 
0.26056 
0.26056 
0.16143 
0.16143 
0.15252 
0.15252 
0.29142 
0.29142 
0.10017 
0.10017 
0.17367 
0.17367 
0.06332 
0.06332 
0.09568 
0.09568 
0.12779 
0.12779 
0.05170 
0.05170 
0.09780 
0.09780 
0.09312 
0.09312 
0.13785 
0.13785 
0.13859 
0.13859 
0.06042 
0.06042 
0.23615 
0.23615 
0.08386 
0.08386 
0.24575 
0.24575 
0.24860 
0.24860 
0.04614 
0.04614 
0.04041 
0.04041 
0.05602 
0.05602 
0.16348 
0.16348 
0.16199 
0.16199 
0.06643 
0.06643 
0.15726 
0.15726 
0.12363 
0.12363 
0.09631 
0.09631 
0.12734 
0.12734 
0.12437 
0.12437 
0.11354 
0.11354 
0.11782 
0.11782 
0.17413 
0.17413 
0.14651 
0.14651 
0.11583 
0.11583 
0.28029 
0.28029 
0.22070 
0.22070 
0.22702 
0.22702 
0.16559 
0.16559 
0.14833 
0.14833 
0.19018 
0.19018 
0.06695 
0.06695 
0.19154 
0.19154 
0.20113 
0.20113 
0.25520 
0.25520 
0.14768 
0.14768 
0.12402 
0.12402 
0.10428 
0.10428 
0.26347 
0.26347 
0.17925 
0.17925 
0.13687 
0.13687 
0.12733 
0.12733 
0.18227 
0.18227 
0.24101 
0.24101 
0.11422 
0.11422 
0.12353 
0.12353 
0.18040 
0.18040 
0.26557 
0.26557 
0.12903 
0.12903 
0.15118 
0.15118 
0.08502 
0.08502 
0.19532 
0.19532 
0.15783 
0.15783 
0.16193 
0.16193 
0.06029 
0.06029 
0.23830 
0.23830 
0.07525 
0.07525 
0.12944 
0.12944 
0.12409 
0.12409 
0.15989 
0.15989 
0.19477 
0.19477 
0.20627 
0.20627 
0.04474 
0.04474 
0.16077 
0.16077 
0.04439 
0.04439 
0.03516 
0.03516 
0.22869 
0.22869 
0.13324 
0.13324 
0.06234 
0.06234 
0.22243 
0.22243 
0.18405 
0.18405 
0.13515 
0.13515 
0.12428 
0.12428 
0.16087 
0.16087 
0.12245 
0.12245 
0.28015 
0.28015 
0.09213 
0.09213 
0.17855 
0.17855 
0.12354 
0.12354 
0.06473 
0.06473 
0.11525 
0.11525 
0.10205 
0.10205 
0.14452 
0.14452 
0.17957 
0.17957 
0.09657 
0.09657 
0.19638 
0.19638 
0.10025 
0.10025 
0.09884 
0.09884 
0.18372 
0.18372 
0.09644 
0.09644 
0.18609 
0.18609 
0.11748 
0.11748 
0.15843 
0.15843 
0.22083 
0.22083 
0.08949 
0.08949 
0.16477 
0.16477 
0.23121 
0.23121 
0.15372 
0.15372 
0.09998 
0.09998 
0.14684 
0.14684 
0.07095 
0.07095 
0.20369 
0.20369 
0.26336 
0.26336 
0.10414 
0.10414 
0.18437 
0.18437 
0.11541 
0.11541 
0.15622 
0.15622 
0.04955 
0.04955 
0.10759 
0.10759 
0.18086 
0.18086 
0.15581 
0.15581 
0.16142 
0.16142 
0.17086 
0.17086 
0.13126 
0.13126 
0.20140 
0.20140 
0.14577 
0.14577 
0.09607 
0.09607 
0.19956 
0.19956 
0.11672 
0.11672 
0.28821 
0.28821 
0.06612 
0.06612 
0.08309 
0.08309 
0.22293 
0.22293 
0.25308 
0.25308 
0.06796 
0.06796 
0.12864 
0.12864 
0.27803 
0.27803 
0.05638 
0.05638 
0.09156 
0.09156 
0.14256 
0.14256 
0.14025 
0.14025 
0.11454 
0.11454 
0.12873 
0.12873 
0.10449 
0.10449 
0.20840 
0.20840 
0.13083 
0.13083 
0.12362 
0.12362 
0.18849 
0.18849 
0.19611 
0.19611 
0.13544 
0.13544 
0.11079 
0.11079 
0.14489 
0.14489 
0.17775 
0.17775 
0.08949 
0.08949 
0.21432 
0.21432 
0.14661 
0.14661 
0.12490 
0.12490 
0.13855 
0.13855 
0.05927 
0.05927 
0.12889 
0.12889 
0.33903 
0.33903 
0.16619 
0.16619 
0.08041 
0.08041 
0.06360 
0.06360 
0.04745 
0.04745 
0.15809 
0.15809 
0.21820 
0.21820 
0.07517 
0.07517 
0.14118 
0.14118 
0.17844 
0.17844 
0.08340 
0.08340 
0.33497 
0.33497 
0.14308 
0.14308 
0.29634 
0.29634 
0.17449 
0.17449 
0.21036 
0.21036 
0.15529 
0.15529 
0.21129 
0.21129 
0.17598 
0.17598 
0.08833 
0.08833 
0.27836 
0.27836 
0.09671 
0.09671 
0.14137 
0.14137 
0.12150 
0.12150 
0.13785 
0.13785 
0.14507 
0.14507 
0.18340 
0.18340 
0.16086 
0.16086 
0.20057 
0.20057 
0.09659 
0.09659 
0.08630 
0.08630 
0.11285 
0.11285 
0.20192 
0.20192 
0.23418 
0.23418 
0.08072 
0.08072 
0.33349 
0.33349 
0.25825 
0.25825 
0.08699 
0.08699 
0.23274 
0.23274 
0.09715 
0.09715 
0.17842 
0.17842 
0.21231 
0.21231 
0.17947 
0.17947 
0.15769 
0.15769 
0.07007 
0.07007 
0.16454 
0.16454 
0.16501 
0.16501 
0.10464 
0.10464 
0.22952 
0.22952 
0.15648 
0.15648 
0.08111 
0.08111 
0.11182 
0.11182 
0.11300 
0.11300 
0.21688 
0.21688 
0.18620 
0.18620 
0.05081 
0.05081 
0.07535 
0.07535 
0.13430 
0.13430 
0.08153 
0.08153 
0.13639 
0.13639 
0.10327 
0.10327 
0.06992 
0.06992 
0.19876 
0.19876 
0.16069 
0.16069 
0.04535 
0.04535 
0.29666 
0.29666 
0.07671 
0.07671 
0.22377 
0.22377 
0.23023 
0.23023 
0.25022 
0.25022 
0.24408 
0.24408 
0.13087 
0.13087 
0.17992 
0.17992 
0.15253 
0.15253 
0.08994 
0.08994 
0.15890 
0.15890 
0.24538 
0.24538 
0.28122 
0.28122 
0.20641 
0.20641 
0.14826 
0.14826 
0.13147 
0.13147 
0.17418 
0.17418 
0.15056 
0.15056 
0.19316 
0.19316 
0.19890 
0.19890 
0.25898 
0.25898 
0.12748 
0.12748 
0.20439 
0.20439 
0.10400 
0.10400 
0.10590 
0.10590 
0.16835 
0.16835 
0.18116 
0.18116 
0.28232 
0.28232 
0.11791 
0.11791 
0.16063 
0.16063 
0.10986 
0.10986 
0.22526 
0.22526 
0.08196 
0.08196 
0.25219 
0.25219 
0.25803 
0.25803 
0.17136 
0.17136 
0.17383 
0.17383 
0.10447 
0.10447 
0.22780 
0.22780 
0.09671 
0.09671 
0.07862 
0.07862 
0.12639 
0.12639 
0.03692 
0.03692 
0.14706 
0.14706 
0.13139 
0.13139 
0.10769 
0.10769 
0.08338 
0.08338 
0.18352 
0.18352 
0.05162 
0.05162 
0.14460 
0.14460 
0.08819 
0.08819 
0.17278 
0.17278 
0.07038 
0.07038 
0.15246 
0.15246 
0.06890 
0.06890 
0.21327 
0.21327 
0.13765 
0.13765 
0.30683 
0.30683 
0.10098 
0.10098 
0.19770 
0.19770 
0.16199 
0.16199 
0.10633 
0.10633 
0.20533 
0.20533 
0.19109 
0.19109 
0.09794 
0.09794 
0.18466 
0.18466 
0.09293 
0.09293 
0.23693 
0.23693 
0.19226 
0.19226 
0.16242 
0.16242 
0.13545 
0.13545 
0.10627 
0.10627 
0.19451 
0.19451 
0.10667 
0.10667 
0.24340 
0.24340 
0.17574 
0.17574 
0.32414 
0.32414 
0.12827 
0.12827 
0.17979 
0.17979 
0.08615 
0.08615 
0.18885 
0.18885 
0.23400 
0.23400 
0.19238 
0.19238 
0.08132 
0.08132 
0.08186 
0.08186 
0.19388 
0.19388 
0.19714 
0.19714 
0.22889 
0.22889 
0.06265 
0.06265 
0.21311 
0.21311 
0.14342 
0.14342 
0.12297 
0.12297 
0.15840 
0.15840 
0.17584 
0.17584 
0.20177 
0.20177 
0.11309 
0.11309 
0.12379 
0.12379 
0.16507 
0.16507 
0.15785 
0.15785 
0.05977 
0.05977 
0.07014 
0.07014 
0.05935 
0.05935 
0.17142 
0.17142 
0.22120 
0.22120 
0.09190 
0.09190 
0.26558 
0.26558 
0.22016 
0.22016 
0.11813 
0.11813 
0.12784 
0.12784 
0.15367 
0.15367 
0.12652 
0.12652 
0.26504 
0.26504 
0.09119 
0.09119 
0.19709 
0.19709 
0.19432 
0.19432 
0.14461 
0.14461 
0.19943 
0.19943 
0.19358 
0.19358 
0.14448 
0.14448 
0.09933 
0.09933 
0.20064 
0.20064 
0.11516 
0.11516 
0.05561 
0.05561 
0.29573 
0.29573 
0.13058 
0.13058 
0.15401 
0.15401 
0.14199 
0.14199 
0.13263 
0.13263 
0.12293 
0.12293 
0.11366 
0.11366 
0.09958 
0.09958 
0.14253 
0.14253 
0.23744 
0.23744 
0.13057 
0.13057 
0.10669 
0.10669 
0.21218 
0.21218 
0.21080 
0.21080 
0.18411 
0.18411 
0.05130 
0.05130 
0.11780 
0.11780 
0.30050 
0.30050 
0.06852 
0.06852 
0.26745 
0.26745 
0.24762 
0.24762 
0.12044 
0.12044 
0.19482 
0.19482 
0.13695 
0.13695 
0.15175 
0.15175 
0.23521 
0.23521 
0.12726 
0.12726 
0.11082 
0.11082 
0.22895 
0.22895 
0.28062 
0.28062 
0.10706 
0.10706 
0.13665 
0.13665 
0.14546 
0.14546 
0.23007 
0.23007 
0.07337 
0.07337 
0.24768 
0.24768 
0.14098 
0.14098 
0.15750 
0.15750 
0.06467 
0.06467 
0.23222 
0.23222 
0.02299 
0.02299 
0.23337 
0.23337 
0.10143 
0.10143 
0.15100 
0.15100 
0.24486 
0.24486 
0.09213 
0.09213 
0.09495 
0.09495 
0.15750 
0.15750 
0.20195 
0.20195 
0.20639 
0.20639 
0.10698 
0.10698 
0.14354 
0.14354 
0.23424 
0.23424 
0.08275 
0.08275 
0.11806 
0.11806 
0.12986 
0.12986 
0.02360 
0.02360 
0.26890 
0.26890 
0.11270 
0.11270 
0.15528 
0.15528 
0.24879 
0.24879 
0.21446 
0.21446 
0.14613 
0.14613 
0.17397 
0.17397 
0.09558 
0.09558 
0.20036 
0.20036 
0.18384 
0.18384 
0.22885 
0.22885 
0.17193 
0.17193 
0.14128 
0.14128 
0.21482 
0.21482 
0.18835 
0.18835 
0.07673 
0.07673 
0.05090 
0.05090 
0.07458 
0.07458 
0.18015 
0.18015 
0.02628 
0.02628 
0.16339 
0.16339 
0.27830 
0.27830 
0.29895 
0.29895 
0.09914 
0.09914 
0.17852 
0.17852 
0.13866 
0.13866 
0.08066 
0.08066 
0.07748 
0.07748 
0.11271 
0.11271 
0.12018 
0.12018 
0.14661 
0.14661 
0.14947 
0.14947 
0.29352 
0.29352 
0.11186 
0.11186 
0.20438 
0.20438 
0.19837 
0.19837 
0.25793 
0.25793 
0.14009 
0.14009 
0.05922 
0.05922 
0.11534 
0.11534 
0.10021 
0.10021 
0.10499 
0.10499 
0.25484 
0.25484 
0.06957 
0.06957 
0.33733 
0.33733 
0.15746 
0.15746 
0.10906 
0.10906 
0.21170 
0.21170 
0.13287 
0.13287 
0.13252 
0.13252 
0.20151 
0.20151 
0.28849 
0.28849 
0.16178 
0.16178 
0.16739 
0.16739 
0.15576 
0.15576 
0.16629 
0.16629 
0.10131 
0.10131 
0.07895 
0.07895 
0.25568 
0.25568 
0.10713 
0.10713 
0.11750 
0.11750 
0.14709 
0.14709 
0.10584 
0.10584 
0.12407 
0.12407 
0.08413 
0.08413 
0.07973 
0.07973 
0.08413 
0.08413 
0.28330 
0.28330 
0.09157 
0.09157 
0.21005 
0.21005 
0.18339 
0.18339 
0.18495 
0.18495 
0.11813 
0.11813 
0.12712 
0.12712 
0.17282 
0.17282 
0.20112 
0.20112 
0.16704 
0.16704 
0.14348 
0.14348 
0.23075 
0.23075 
0.07001 
0.07001 
0.10585 
0.10585 
0.07598 
0.07598 
0.14989 
0.14989 
0.22797 
0.22797 
0.07939 
0.07939 
0.26895 
0.26895 
0.19566 
0.19566 
0.11223 
0.11223 
0.16971 
0.16971 
0.11980 
0.11980 
0.10544 
0.10544 
0.13080 
0.13080 
0.08734 
0.08734 
0.18496 
0.18496 
0.27816 
0.27816 
0.29424 
0.29424 
0.18678 
0.18678 
0.17030 
0.17030 
0.14785 
0.14785 
0.14608 
0.14608 
0.28868 
0.28868 
0.12639 
0.12639 
0.11786 
0.11786 
0.14532 
0.14532 
0.13920 
0.13920 
0.18949 
0.18949 
0.25709 
0.25709 
0.06303 
0.06303 
0.18732 
0.18732 
0.10742 
0.10742 
0.05868 
0.05868 
0.12563 
0.12563 
0.16560 
0.16560 
0.26928 
0.26928 
0.11892 
0.11892 
0.28799 
0.28799 
0.26439 
0.26439 
0.18749 
0.18749 
0.12582 
0.12582 
0.14356 
0.14356 
0.18221 
0.18221 
0.12606 
0.12606 
0.16924 
0.16924 
0.09542 
0.09542 
0.12181 
0.12181 
0.11896 
0.11896 
0.15175 
0.15175 
0.11069 
0.11069 
0.09247 
0.09247 
0.12771 
0.12771 
0.11227 
0.11227 
0.06442 
0.06442 
0.24775 
0.24775 
0.13379 
0.13379 
0.12108 
0.12108 
0.19165 
0.19165 
0.09655 
0.09655 
0.14965 
0.14965 
0.06351 
0.06351 
0.23309 
0.23309 
0.20934 
0.20934 
0.09229 
0.09229 
0.26568 
0.26568 
0.16578 
0.16578 
0.11845 
0.11845 
0.18660 
0.18660 
0.07164 
0.07164 
0.07968 
0.07968 
0.06117 
0.06117 
0.14446 
0.14446 
0.17740 
0.17740 
0.22190 
0.22190 
0.11045 
0.11045 
0.19306 
0.19306 
0.09258 
0.09258 
0.20892 
0.20892 
0.10781 
0.10781 
0.12146 
0.12146 
0.01831 
0.01831 
0.15426 
0.15426 
0.21756 
0.21756 
0.10785 
0.10785 
0.11000 
0.11000 
0.15554 
0.15554 
0.21667 
0.21667 
0.13974 
0.13974 
0.19333 
0.19333 
0.19900 
0.19900 
0.14531 
0.14531 
0.10442 
0.10442 
0.07107 
0.07107 
0.22499 
0.22499 
0.14625 
0.14625 
0.09843 
0.09843 
0.11308 
0.11308 
0.11916 
0.11916 
0.13917 
0.13917 
0.15822 
0.15822 
0.14462 
0.14462 
0.09237 
0.09237 
0.03930 
0.03930 
0.08930 
0.08930 
0.20014 
0.20014 
0.07202 
0.07202 
0.18832 
0.18832 
0.18445 
0.18445 
0.13597 
0.13597 
0.06140 
0.06140 
0.14573 
0.14573 
0.05467 
0.05467 
0.17621 
0.17621 
0.05460 
0.05460 
0.04901 
0.04901 
0.11562 
0.11562 
0.11905 
0.11905 
0.25241 
0.25241 
0.08665 
0.08665 
0.08643 
0.08643 
0.13589 
0.13589 
0.12648 
0.12648 
0.12996 
0.12996 
0.11178 
0.11178 
0.23116 
0.23116 
0.10485 
0.10485 
0.07902 
0.07902 
0.17328 
0.17328 
0.13597 
0.13597 
0.19401 
0.19401 
0.15663 
0.15663 
0.18239 
0.18239 
0.19517 
0.19517 
0.31572 
0.31572 
0.14009 
0.14009 
0.06464 
0.06464 
0.12983 
0.12983 
0.21989 
0.21989 
0.08895 
0.08895 
0.34623 
0.34623 
0.10774 
0.10774 
0.19832 
0.19832 
0.18927 
0.18927 
0.13398 
0.13398 
0.15745 
0.15745 
0.10424 
0.10424 
0.21490 
0.21490 
0.20313 
0.20313 
0.12461 
0.12461 
0.14271 
0.14271 
0.30840 
0.30840 
0.04470 
0.04470 
0.14511 
0.14511 
0.20836 
0.20836 
0.24762 
0.24762 
0.09420 
0.09420 
0.08673 
0.08673 
0.19741 
0.19741 
0.23219 
0.23219 
0.10250 
0.10250 
0.07843 
0.07843 
0.12676 
0.12676 
0.16031 
0.16031 
0.19176 
0.19176 
0.11449 
0.11449 
0.22770 
0.22770 
0.11037 
0.11037 
0.23036 
0.23036 
0.19273 
0.19273 
0.10150 
0.10150 
0.09177 
0.09177 
0.26466 
0.26466 
0.09932 
0.09932 
0.13989 
0.13989 
0.06322 
0.06322 
0.12540 
0.12540 
0.26031 
0.26031 
0.15267 
0.15267 
0.33337 
0.33337 
0.11579 
0.11579 
0.11286 
0.11286 
0.12663 
0.12663 
0.08808 
0.08808 
0.09127 
0.09127 
0.15329 
0.15329 
0.11793 
0.11793 
0.28228 
0.28228 
0.07962 
0.07962 
0.08607 
0.08607 
0.13024 
0.13024 
0.07281 
0.07281 
0.08594 
0.08594 
0.10223 
0.10223 
0.12678 
0.12678 
0.07915 
0.07915 
0.15739 
0.15739 
0.22033 
0.22033 
0.21099 
0.21099 
0.10541 
0.10541 
0.17085 
0.17085 
0.15868 
0.15868 
0.10154 
0.10154 
0.13221 
0.13221 
0.16893 
0.16893 
0.12158 
0.12158 
0.07205 
0.07205 
0.09691 
0.09691 
0.19602 
0.19602 
0.19845 
0.19845 
0.17694 
0.17694 
0.11013 
0.11013 
0.34542 
0.34542 
0.29228 
0.29228 
0.07936 
0.07936 
0.24393 
0.24393 
0.07868 
0.07868 
0.07254 
0.07254 
0.19645 
0.19645 
0.16744 
0.16744 
0.08314 
0.08314 
0.19706 
0.19706 
0.04593 
0.04593 
0.16398 
0.16398 
0.32039 
0.32039 
0.07081 
0.07081 
0.15620 
0.15620 
0.13260 
0.13260 
0.12595 
0.12595 
0.05513 
0.05513 
0.16379 
0.16379 
0.16482 
0.16482 
0.14872 
0.14872 
0.17802 
0.17802 
0.11235 
0.11235 
0.08176 
0.08176 
0.24883 
0.24883 
0.12394 
0.12394 
0.14458 
0.14458 
0.12251 
0.12251 
0.14375 
0.14375 
0.18429 
0.18429 
0.08337 
0.08337 
0.19406 
0.19406 
0.26966 
0.26966 
0.21221 
0.21221 
0.23512 
0.23512 
0.09181 
0.09181 
0.18607 
0.18607 
0.12333 
0.12333 
0.08539 
0.08539 
0.13219 
0.13219 
0.05829 
0.05829 
0.15015 
0.15015 
0.30337 
0.30337 
0.16073 
0.16073 
0.08936 
0.08936 
0.15776 
0.15776 
0.17680 
0.17680 
0.14939 
0.14939 
0.06476 
0.06476 
0.11828 
0.11828 
0.09925 
0.09925 
0.11032 
0.11032 
0.13472 
0.13472 
0.21525 
0.21525 
0.15875 
0.15875 
0.10415 
0.10415 
0.18161 
0.18161 
0.11274 
0.11274 
0.08373 
0.08373 
0.09226 
0.09226 
0.22287 
0.22287 
0.13324 
0.13324 
0.15189 
0.15189 
0.25218 
0.25218 
0.12132 
0.12132 
0.07191 
0.07191 
0.21550 
0.21550 
0.18062 
0.18062 
0.11151 
0.11151 
0.16462 
0.16462 
0.16921 
0.16921 
0.29787 
0.29787 
0.17105 
0.17105 
0.19197 
0.19197 
0.10413 
0.10413 
0.18499 
0.18499 
0.07940 
0.07940 
0.08491 
0.08491 
0.09986 
0.09986 
0.06062 
0.06062 
0.12897 
0.12897 
0.08757 
0.08757 
0.20176 
0.20176 
0.21816 
0.21816 
0.18114 
0.18114 
0.21043 
0.21043 
0.26642 
0.26642 
0.23646 
0.23646 
0.15140 
0.15140 
0.14769 
0.14769 
0.13607 
0.13607 
0.12478 
0.12478 
0.18972 
0.18972 
0.09440 
0.09440 
0.07806 
0.07806 
0.25021 
0.25021 
0.11001 
0.11001 
0.13504 
0.13504 
0.23743 
0.23743 
0.11885 
0.11885 
0.17713 
0.17713 
0.12612 
0.12612 
0.18140 
0.18140 
0.22308 
0.22308 
0.08388 
0.08388 
0.16329 
0.16329 
0.22196 
0.22196 
0.22118 
0.22118 
0.08533 
0.08533 
0.16909 
0.16909 
0.05684 
0.05684 
0.17054 
0.17054 
0.22369 
0.22369 
0.12230 
0.12230 
0.20056 
0.20056 
0.21693 
0.21693 
0.17951 
0.17951 
0.18239 
0.18239 
0.11102 
0.11102 
0.19432 
0.19432 
0.22613 
0.22613 
0.22473 
0.22473 
0.17017 
0.17017 
0.16124 
0.16124 
0.17574 
0.17574 
0.29356 
0.29356 
0.14307 
0.14307 
0.06099 
0.06099 
0.13575 
0.13575 
0.30294 
0.30294 
0.13511 
0.13511 
0.09946 
0.09946 
0.21122 
0.21122 
0.15566 
0.15566 
0.26464 
0.26464 
0.22201 
0.22201 
0.18248 
0.18248 
0.22736 
0.22736 
0.11922 
0.11922 
0.23487 
0.23487 
0.10178 
0.10178 
0.19708 
0.19708 
0.13848 
0.13848 
0.10667 
0.10667 
0.12987 
0.12987 
0.09975 
0.09975 
0.22804 
0.22804 
0.05882 
0.05882 
0.10196 
0.10196 
0.18850 
0.18850 
0.08382 
0.08382 
0.31311 
0.31311 
0.22535 
0.22535 
0.16944 
0.16944 
0.14891 
0.14891 
0.14682 
0.14682 
0.14572 
0.14572 
0.16366 
0.16366 
0.14375 
0.14375 
0.18122 
0.18122 
0.11157 
0.11157 
0.09012 
0.09012 
0.22147 
0.22147 
0.26248 
0.26248 
0.07075 
0.07075 
0.22568 
0.22568 
0.15109 
0.15109 
0.19842 
0.19842 
0.12147 
0.12147 
0.21207 
0.21207 
0.23539 
0.23539 
0.14924 
0.14924 
0.34758 
0.34758 
0.15277 
0.15277 
0.22777 
0.22777 
0.18665 
0.18665 
0.09651 
0.09651 
0.17679 
0.17679 
0.14235 
0.14235 
0.09313 
0.09313 
0.13623 
0.13623 
0.15768 
0.15768 
0.14652 
0.14652 
0.07481 
0.07481 
0.21409 
0.21409 
0.22217 
0.22217 
0.15311 
0.15311 
0.09855 
0.09855 
0.23763 
0.23763 
0.14905 
0.14905 
0.14665 
0.14665 
0.07700 
0.07700 
0.01873 
0.01873 
0.08198 
0.08198 
0.19262 
0.19262 
0.03667 
0.03667 
0.17326 
0.17326 
0.12856 
0.12856 
0.07336 
0.07336 
0.09219 
0.09219 
0.12812 
0.12812 
0.06510 
0.06510 
0.07343 
0.07343 
0.10678 
0.10678 
0.13115 
0.13115 
0.17167 
0.17167 
0.19723 
0.19723 
0.07003 
0.07003 
0.10523 
0.10523 
0.11489 
0.11489 
0.14310 
0.14310 
0.09918 