# vtk DataFile Version 2.1 
Trajects from stack 3 with color option 
ASCII 
 
DATASET POLYDATA POINTS 49440 float 
-3.035 2.097 -73.064 
-2.934 2.268 -72.982 
-6.923 4.684 -72.643 
-6.830 4.788 -72.640 
4.643 5.592 -70.888 
4.636 5.834 -71.034 
-5.640 -0.811 -72.120 
-5.518 -0.526 -72.213 
1.163 10.865 -71.306 
1.108 11.154 -71.307 
-11.296 9.867 -72.571 
-11.248 9.998 -72.572 
0.298 5.844 -67.954 
0.369 6.054 -67.907 
2.047 -6.945 -69.352 
2.236 -6.741 -69.590 
-0.175 -3.244 -70.970 
-0.030 -3.046 -71.097 
1.721 8.983 -67.501 
1.693 9.165 -67.391 
6.132 4.738 -71.271 
6.142 5.014 -71.371 
10.926 7.670 -70.874 
11.040 7.804 -71.056 
-9.164 8.293 -72.158 
-9.129 8.348 -72.111 
0.280 1.716 -76.138 
0.330 1.847 -76.138 
-9.954 -2.010 -74.077 
-9.796 -1.848 -74.145 
1.656 8.513 -69.809 
1.605 8.718 -69.809 
-9.023 -2.943 -73.457 
-8.871 -2.771 -73.562 
0.078 8.566 -68.371 
0.173 8.690 -68.343 
10.129 4.339 -72.372 
10.172 4.575 -72.548 
0.628 4.096 -68.178 
0.719 4.304 -68.155 
-10.400 1.370 -70.774 
-10.457 1.658 -70.648 
-1.645 7.422 -67.308 
-1.579 7.664 -67.223 
2.731 11.736 -71.711 
2.619 11.940 -71.789 
-0.830 4.297 -69.332 
-0.727 4.549 -69.339 
-0.347 -8.214 -72.979 
-0.299 -8.029 -72.963 
15.792 3.745 -70.154 
15.887 3.775 -70.267 
-2.561 5.340 -67.506 
-2.465 5.595 -67.449 
11.350 -2.090 -73.449 
11.512 -1.954 -73.702 
-4.995 4.573 -70.226 
-4.889 4.670 -70.184 
-1.254 11.975 -72.129 
-1.440 12.096 -72.185 
4.390 11.533 -67.547 
4.404 11.679 -67.645 
7.257 2.032 -68.983 
7.425 2.265 -69.141 
7.434 6.460 -72.676 
7.356 6.681 -72.880 
-2.843 0.666 -66.919 
-2.794 1.052 -66.988 
3.019 1.808 -73.255 
3.129 2.077 -73.251 
15.743 9.873 -72.351 
15.786 9.955 -72.423 
-11.690 -0.807 -75.733 
-11.797 -0.729 -75.830 
6.945 6.378 -72.994 
6.904 6.645 -73.221 
5.686 8.772 -71.942 
5.696 8.888 -71.933 
-9.587 6.279 -65.533 
-9.607 6.636 -65.616 
-10.338 1.477 -67.740 
-10.260 1.665 -67.798 
-8.650 -4.687 -74.960 
-8.472 -4.523 -75.090 
5.397 1.074 -72.743 
5.454 1.438 -72.944 
-1.908 8.750 -68.513 
-1.839 8.943 -68.514 
-4.179 5.048 -63.940 
-4.031 5.315 -63.758 
3.641 -1.679 -67.784 
3.803 -1.509 -67.990 
2.500 -5.885 -70.614 
2.647 -5.712 -70.804 
9.590 1.094 -72.268 
9.717 1.308 -72.523 
-9.838 9.544 -69.568 
-9.703 9.637 -69.564 
3.749 -3.398 -69.867 
3.926 -3.140 -70.079 
-14.034 -1.619 -75.257 
-14.145 -1.485 -75.144 
-2.749 -8.795 -72.602 
-2.809 -8.643 -72.645 
-10.491 -2.130 -70.086 
-10.399 -1.903 -70.253 
-0.628 10.947 -73.217 
-0.755 11.091 -73.330 
3.686 -12.377 -72.091 
3.938 -12.291 -72.364 
-2.069 -0.921 -70.125 
-1.883 -0.713 -70.325 
4.705 0.169 -67.256 
4.927 0.381 -67.468 
-1.869 0.615 -70.310 
-1.822 0.877 -70.330 
8.019 -7.170 -66.982 
8.029 -7.077 -67.049 
1.715 4.780 -64.677 
1.909 4.980 -64.666 
-5.115 -1.511 -68.462 
-4.948 -1.316 -68.556 
-8.469 2.838 -75.336 
-8.411 2.899 -75.518 
-4.598 -6.526 -71.026 
-4.469 -6.271 -71.017 
-0.732 3.722 -68.900 
-0.709 3.945 -68.919 
-8.893 6.803 -66.960 
-8.820 6.997 -66.930 
8.208 -10.817 -72.204 
8.398 -10.813 -72.318 
0.608 9.655 -64.900 
0.655 9.943 -64.830 
10.878 -8.707 -66.772 
10.965 -8.578 -66.691 
-5.643 6.234 -62.590 
-5.656 6.376 -62.483 
7.709 -4.329 -65.401 
7.810 -3.963 -65.543 
4.426 -8.343 -73.903 
4.563 -8.194 -74.153 
-10.801 -3.428 -74.882 
-10.678 -3.236 -74.999 
5.579 1.368 -66.860 
5.805 1.620 -66.965 
2.924 0.273 -72.932 
3.037 0.496 -72.948 
-4.832 2.313 -68.203 
-4.666 2.619 -68.206 
9.332 11.153 -66.738 
9.343 11.256 -66.703 
1.932 3.821 -64.634 
2.080 3.965 -64.750 
-2.965 11.390 -65.156 
-2.869 11.652 -65.003 
5.451 6.208 -64.613 
5.524 6.313 -64.618 
3.252 11.187 -66.341 
3.225 11.428 -66.400 
-5.765 -2.548 -61.510 
-5.748 -2.323 -61.472 
-13.508 0.116 -67.232 
-13.515 0.311 -67.307 
-4.389 -3.546 -68.168 
-4.298 -3.240 -68.276 
-8.499 0.467 -67.151 
-8.443 0.658 -67.348 
-4.443 9.869 -66.163 
-4.283 10.114 -66.130 
-10.125 -1.611 -69.516 
-10.129 -1.310 -69.623 
-9.274 12.720 -66.502 
-9.235 12.821 -66.504 
5.920 6.688 -72.518 
5.860 6.955 -72.755 
13.369 5.260 -66.010 
13.494 5.433 -66.131 
4.009 8.108 -69.756 
4.036 8.406 -69.802 
4.422 9.504 -70.006 
4.367 9.691 -70.097 
-7.585 5.240 -72.336 
-7.490 5.331 -72.355 
-3.282 -1.781 -70.284 
-3.146 -1.601 -70.515 
-6.758 -2.346 -71.926 
-6.665 -2.072 -71.983 
1.942 -0.546 -64.293 
2.050 -0.386 -64.309 
1.184 1.132 -68.721 
1.292 1.376 -68.799 
-7.882 -2.340 -77.872 
-7.878 -2.315 -77.915 
13.498 0.510 -65.362 
13.482 0.736 -65.393 
-11.862 9.044 -66.914 
-11.760 9.238 -66.948 
-1.609 1.320 -64.446 
-1.593 1.542 -64.330 
-2.333 -2.840 -61.957 
-2.125 -2.476 -61.982 
-13.716 11.164 -74.472 
-13.694 11.290 -74.444 
-5.482 4.395 -65.887 
-5.329 4.607 -65.827 
-3.918 8.976 -64.129 
-3.756 9.222 -63.992 
-2.482 1.459 -62.645 
-2.534 1.657 -62.581 
-6.666 -1.002 -66.691 
-6.604 -0.892 -66.723 
-5.877 -5.550 -68.490 
-5.813 -5.278 -68.645 
6.634 9.252 -69.670 
6.605 9.367 -69.878 
-3.262 -12.645 -63.912 
-3.088 -12.611 -64.019 
4.831 -4.155 -68.478 
4.986 -3.955 -68.803 
-4.677 -3.734 -63.323 
-4.676 -3.512 -63.376 
-1.193 -1.532 -62.119 
-1.100 -1.349 -62.152 
-6.078 2.798 -61.310 
-6.129 2.914 -61.356 
-5.507 2.769 -63.722 
-5.501 2.990 -63.735 
13.488 7.791 -69.103 
13.608 7.801 -69.244 
-1.946 10.298 -65.943 
-1.897 10.469 -65.941 
7.012 12.412 -67.184 
7.037 12.554 -67.029 
1.539 -5.435 -66.910 
1.720 -5.269 -67.026 
0.666 4.305 -71.918 
0.849 4.529 -71.896 
0.711 1.295 -61.668 
0.786 1.501 -61.674 
12.349 -6.685 -68.332 
12.565 -6.502 -68.287 
-13.974 10.276 -75.047 
-13.941 10.390 -75.006 
-9.777 2.077 -63.934 
-9.774 2.343 -63.997 
-3.740 5.442 -69.501 
-3.580 5.754 -69.517 
9.502 4.229 -67.549 
9.704 4.331 -67.704 
-4.019 -2.163 -71.182 
-3.935 -1.879 -71.252 
-1.051 12.467 -67.225 
-0.985 12.721 -67.175 
7.734 -13.032 -66.947 
7.791 -12.826 -66.819 
2.657 -10.262 -65.887 
2.765 -10.116 -66.159 
4.734 6.897 -71.292 
4.685 7.090 -71.432 
12.345 7.087 -70.880 
12.465 6.993 -70.942 
-4.758 4.564 -68.625 
-4.755 4.778 -68.660 
-0.702 -8.226 -64.026 
-0.543 -8.097 -64.206 
4.229 -11.681 -67.684 
4.324 -11.444 -68.067 
-7.080 -11.557 -69.807 
-6.950 -11.405 -69.817 
8.518 -3.641 -69.622 
8.654 -3.558 -69.732 
2.534 -10.914 -65.829 
2.730 -10.770 -66.122 
-1.154 9.156 -70.226 
-1.109 9.308 -70.244 
-11.366 -7.562 -71.484 
-11.185 -7.408 -71.607 
-12.560 6.508 -67.459 
-12.618 6.865 -67.585 
8.097 -4.865 -68.087 
8.113 -4.713 -68.070 
-12.763 12.724 -68.284 
-12.713 12.745 -68.208 
-1.757 6.387 -73.965 
-1.659 6.585 -73.993 
0.583 -3.300 -63.680 
0.738 -3.067 -63.761 
2.675 0.027 -70.412 
2.904 0.335 -70.549 
8.602 10.311 -74.472 
8.588 10.444 -74.706 
-9.300 -7.568 -65.381 
-9.180 -7.438 -65.603 
-10.571 -1.323 -66.805 
-10.411 -1.025 -66.975 
12.156 -4.057 -69.657 
12.134 -3.973 -69.600 
-1.319 2.809 -65.566 
-1.272 2.980 -65.545 
-6.444 -6.819 -70.970 
-6.311 -6.526 -71.004 
-2.438 2.249 -68.356 
-2.356 2.407 -68.417 
3.226 7.212 -68.945 
3.336 7.483 -68.840 
-12.152 4.311 -69.060 
-12.046 4.622 -69.102 
5.832 11.367 -72.662 
5.835 11.331 -72.849 
-3.046 0.676 -62.674 
-2.982 0.884 -62.529 
2.713 -3.163 -66.902 
2.839 -3.000 -67.109 
13.038 2.335 -69.080 
13.152 2.540 -69.271 
-2.955 -7.755 -65.625 
-2.729 -7.572 -65.788 
-13.661 7.250 -69.546 
-13.723 7.453 -69.622 
-5.458 -4.906 -64.877 
-5.136 -4.680 -64.944 
8.908 -4.958 -66.021 
8.939 -4.791 -66.145 
-14.640 9.873 -72.666 
-14.590 9.837 -72.678 
-12.256 -3.199 -63.089 
-12.239 -2.923 -63.488 
16.641 0.723 -71.388 
16.751 0.764 -71.687 
-5.676 -3.045 -66.228 
-5.580 -2.783 -66.236 
-3.571 -7.823 -62.207 
-3.662 -7.869 -62.457 
10.850 -1.616 -66.276 
10.929 -1.511 -66.373 
-6.538 -1.163 -68.851 
-6.324 -0.995 -68.840 
2.223 2.829 -63.768 
2.280 3.021 -63.943 
-5.847 -4.536 -60.328 
-5.930 -4.356 -60.488 
-12.345 -0.864 -74.047 
-12.459 -0.607 -74.016 
-11.813 5.679 -66.330 
-11.836 5.959 -66.453 
5.520 1.997 -62.557 
5.599 2.227 -62.706 
3.937 3.959 -70.896 
3.998 4.206 -70.980 
-9.978 0.464 -68.162 
-9.853 0.669 -68.249 
-4.317 -6.955 -62.700 
-4.392 -6.863 -62.703 
6.151 -4.867 -69.822 
6.424 -4.609 -70.031 
8.640 -0.866 -63.979 
8.683 -0.521 -64.088 
-4.908 6.187 -61.381 
-4.924 6.234 -61.363 
-6.793 8.242 -68.797 
-6.609 8.300 -68.768 
-5.535 12.450 -69.231 
-5.522 12.630 -69.198 
5.814 -0.221 -64.307 
5.888 0.073 -64.488 
4.816 -4.818 -69.903 
5.015 -4.551 -70.307 
-13.004 -5.718 -68.360 
-13.016 -5.562 -68.564 
-9.704 -9.283 -66.384 
-9.803 -9.283 -66.508 
2.414 -1.410 -64.733 
2.512 -1.217 -64.948 
14.612 0.364 -74.117 
14.642 0.517 -74.253 
-13.897 2.871 -72.776 
-13.788 2.830 -72.799 
-12.185 3.901 -71.101 
-12.145 4.104 -71.144 
5.547 -2.881 -66.985 
5.615 -2.505 -67.181 
6.232 9.563 -68.984 
6.254 9.716 -69.093 
-9.016 -9.443 -69.559 
-9.023 -9.226 -69.737 
-2.956 -11.557 -65.657 
-2.817 -11.459 -65.802 
-2.578 -3.528 -62.597 
-2.408 -3.242 -62.856 
6.184 3.682 -67.306 
6.389 3.912 -67.413 
-9.219 9.326 -61.313 
-9.250 9.538 -61.234 
15.039 -2.690 -69.025 
14.914 -2.673 -69.057 
-13.447 10.027 -66.681 
-13.346 10.131 -66.532 
-6.392 0.655 -70.386 
-6.331 0.787 -70.442 
-0.700 6.693 -65.119 
-0.666 7.011 -64.961 
-2.611 -7.168 -62.468 
-2.578 -7.002 -62.679 
-2.356 11.296 -65.732 
-2.306 11.579 -65.712 
-7.954 10.572 -76.363 
-8.008 10.645 -76.389 
-1.780 -0.537 -64.154 
-1.685 -0.304 -64.312 
-9.788 -1.714 -72.445 
-9.704 -1.484 -72.594 
2.928 -2.180 -67.780 
3.054 -1.968 -68.041 
-9.425 -1.017 -71.193 
-9.413 -0.830 -71.234 
1.654 -2.509 -72.336 
1.801 -2.309 -72.471 
-10.461 -11.559 -71.888 
-10.449 -11.505 -72.137 
11.570 4.247 -64.929 
11.736 4.475 -65.084 
2.610 -11.774 -65.192 
2.729 -11.711 -65.450 
-6.400 4.646 -74.007 
-6.261 4.742 -74.081 
9.933 4.400 -64.495 
10.140 4.634 -64.574 
9.679 12.915 -66.886 
9.540 12.992 -66.978 
2.363 -11.972 -64.393 
2.573 -11.954 -64.632 
8.112 -11.771 -76.567 
8.027 -11.873 -76.708 
-9.428 -4.084 -63.520 
-9.288 -3.926 -64.010 
-2.531 -9.035 -68.648 
-2.453 -8.790 -68.813 
10.424 -3.702 -65.014 
10.431 -3.449 -64.952 
-6.445 2.205 -62.177 
-6.471 2.325 -62.205 
[...]
POINT_DATA 49440 
SCALARS Umean double 1 
LOOKUP_TABLE default
0.10743 
0.10743 
0.06977 
0.06977 
0.14136 
0.14136 
0.16183 
0.16183 
0.14709 
0.14709 
0.06976 
0.06976 
0.11330 
0.11330 
0.18302 
0.18302 
0.13816 
0.13816 
0.10725 
0.10725 
0.14686 
0.14686 
0.12657 
0.12657 
0.04018 
0.04018 
0.07011 
0.07011 
0.11814 
0.11814 
0.10562 
0.10562 
0.12621 
0.12621 
0.07935 
0.07935 
0.14876 
0.14876 
0.11410 
0.11410 
0.15974 
0.15974 
0.13242 
0.13242 
0.12272 
0.12272 
0.13616 
0.13616 
0.09590 
0.09590 
0.07532 
0.07532 
0.13919 
0.13919 
0.16489 
0.16489 
0.07485 
0.07485 
0.11443 
0.11443 
0.08820 
0.08820 
0.16392 
0.16392 
0.15536 
0.15536 
0.19758 
0.19758 
0.14532 
0.14532 
0.05865 
0.05865 
0.08207 
0.08207 
0.17642 
0.17642 
0.05839 
0.05839 
0.18353 
0.18353 
0.10582 
0.10582 
0.13737 
0.13737 
0.20985 
0.20985 
0.10248 
0.10248 
0.17771 
0.17771 
0.15619 
0.15619 
0.14802 
0.14802 
0.17815 
0.17815 
0.08199 
0.08199 
0.18897 
0.18897 
0.10374 
0.10374 
0.08449 
0.08449 
0.14822 
0.14822 
0.11139 
0.11139 
0.19068 
0.19068 
0.17165 
0.17165 
0.18653 
0.18653 
0.13347 
0.13347 
0.05753 
0.05753 
0.13942 
0.13942 
0.13670 
0.13670 
0.10026 
0.10026 
0.14296 
0.14296 
0.11249 
0.11249 
0.10472 
0.10472 
0.11081 
0.11081 
0.15004 
0.15004 
0.08771 
0.08771 
0.08914 
0.08914 
0.20268 
0.20268 
0.16083 
0.16083 
0.12814 
0.12814 
0.17720 
0.17720 
0.12525 
0.12525 
0.17407 
0.17407 
0.05467 
0.05467 
0.11842 
0.11842 
0.15911 
0.15911 
0.06399 
0.06399 
0.12479 
0.12479 
0.11441 
0.11441 
0.10452 
0.10452 
0.16851 
0.16851 
0.14002 
0.14002 
0.14724 
0.14724 
0.15974 
0.15974 
0.05414 
0.05414 
0.18101 
0.18101 
0.12267 
0.12267 
0.15137 
0.15137 
0.10756 
0.10756 
0.06646 
0.06646 
0.16144 
0.16144 
0.14746 
0.14746 
0.09685 
0.09685 
0.13900 
0.13900 
0.02495 
0.02495 
0.11434 
0.11434 
0.11090 
0.11090 
0.12550 
0.12550 
0.20999 
0.20999 
0.06547 
0.06547 
0.13412 
0.13412 
0.16243 
0.16243 
0.10724 
0.10724 
0.06513 
0.06513 
0.15977 
0.15977 
0.11972 
0.11972 
0.10354 
0.10354 
0.20594 
0.20594 
0.11412 
0.11412 
0.10396 
0.10396 
0.06740 
0.06740 
0.11073 
0.11073 
0.09271 
0.09271 
0.08895 
0.08895 
0.10585 
0.10585 
0.13581 
0.13581 
0.14504 
0.14504 
0.10966 
0.10966 
0.14333 
0.14333 
0.06278 
0.06278 
0.13669 
0.13669 
0.17550 
0.17550 
0.13714 
0.13714 
0.15216 
0.15216 
0.13358 
0.13358 
0.12457 
0.12457 
0.16353 
0.16353 
0.12171 
0.12171 
0.08228 
0.08228 
0.10843 
0.10843 
0.13631 
0.13631 
0.23015 
0.23015 
0.10013 
0.10013 
0.09681 
0.09681 
0.19039 
0.19039 
0.07977 
0.07977 
0.13380 
0.13380 
0.19150 
0.19150 
0.07689 
0.07689 
0.04668 
0.04668 
0.11135 
0.11135 
0.14567 
0.14567 
0.20376 
0.20376 
0.13476 
0.13476 
0.14194 
0.14194 
0.18928 
0.18928 
0.05194 
0.05194 
0.08929 
0.08929 
0.16178 
0.16178 
0.09409 
0.09409 
0.15538 
0.15538 
0.16562 
0.16562 
0.09523 
0.09523 
0.13075 
0.13075 
0.14603 
0.14603 
0.15125 
0.15125 
0.16668 
0.16668 
0.11273 
0.11273 
0.19953 
0.19953 
0.10515 
0.10515 
0.03138 
0.03138 
0.24273 
0.24273 
0.16061 
0.16061 
0.13957 
0.13957 
0.13500 
0.13500 
0.08166 
0.08166 
0.13614 
0.13614 
0.13298 
0.13298 
0.12737 
0.12737 
0.14143 
0.14143 
0.15334 
0.15334 
0.14260 
0.14260 
0.13396 
0.13396 
0.12769 
0.12769 
0.05937 
0.05937 
0.21493 
0.21493 
0.18218 
0.18218 
0.02641 
0.02641 
0.09755 
0.09755 
0.09173 
0.09173 
0.17655 
0.17655 
0.26178 
0.26178 
0.12855 
0.12855 
0.07934 
0.07934 
0.15254 
0.15254 
0.10345 
0.10345 
0.05935 
0.05935 
0.10566 
0.10566 
0.21472 
0.21472 
0.09457 
0.09457 
0.14038 
0.14038 
0.11175 
0.11175 
0.21082 
0.21082 
0.16308 
0.16308 
0.11418 
0.11418 
0.06507 
0.06507 
0.10394 
0.10394 
0.07791 
0.07791 
0.17836 
0.17836 
0.13525 
0.13525 
0.14404 
0.14404 
0.04723 
0.04723 
0.14856 
0.14856 
0.14332 
0.14332 
0.17954 
0.17954 
0.09591 
0.09591 
0.14127 
0.14127 
0.12754 
0.12754 
0.16091 
0.16091 
0.14551 
0.14551 
0.09221 
0.09221 
0.16113 
0.16113 
0.09181 
0.09181 
0.15933 
0.15933 
0.09684 
0.09684 
0.26677 
0.26677 
0.15275 
0.15275 
0.13029 
0.13029 
0.06297 
0.06297 
0.16082 
0.16082 
0.14519 
0.14519 
0.09936 
0.09936 
0.20539 
0.20539 
0.13079 
0.13079 
0.21160 
0.21160 
0.07195 
0.07195 
0.15958 
0.15958 
0.11639 
0.11639 
0.14765 
0.14765 
0.17218 
0.17218 
0.13334 
0.13334 
0.18110 
0.18110 
0.14036 
0.14036 
0.09130 
0.09130 
0.09871 
0.09871 
0.11195 
0.11195 
0.12669 
0.12669 
0.04705 
0.04705 
0.08241 
0.08241 
0.09830 
0.09830 
0.07603 
0.07603 
0.12516 
0.12516 
0.16043 
0.16043 
0.09452 
0.09452 
0.13478 
0.13478 
0.08793 
0.08793 
0.06439 
0.06439 
0.03738 
0.03738 
0.12966 
0.12966 
0.01707 
0.01707 
0.16587 
0.16587 
0.05858 
0.05858 
0.11232 
0.11232 
0.15993 
0.15993 
0.10963 
0.10963 
0.17581 
0.17581 
0.05375 
0.05375 
0.16851 
0.16851 
0.14675 
0.14675 
0.09506 
0.09506 
0.17754 
0.17754 
0.16389 
0.16389 
0.17378 
0.17378 
0.18641 
0.18641 
0.12587 
0.12587 
0.15767 
0.15767 
0.13915 
0.13915 
0.01828 
0.01828 
0.10548 
0.10548 
0.15153 
0.15153 
0.16179 
0.16179 
0.20538 
0.20538 
0.13870 
0.13870 
0.07433 
0.07433 
0.07220 
0.07220 
0.11662 
0.11662 
0.10898 
0.10898 
0.10896 
0.10896 
0.18727 
0.18727 
0.11769 
0.11769 
0.05569 
0.05569 
0.27616 
0.27616 
0.14962 
0.14962 
0.12881 
0.12881 
0.05332 
0.05332 
0.14288 
0.14288 
0.10349 
0.10349 
0.24676 
0.24676 
0.13586 
0.13586 
0.12980 
0.12980 
0.16367 
0.16367 
0.11683 
0.11683 
0.15183 
0.15183 
0.07680 
0.07680 
0.03989 
0.03989 
0.12876 
0.12876 
0.06614 
0.06614 
0.13027 
0.13027 
0.12203 
0.12203 
0.14004 
0.14004 
0.07835 
0.07835 
0.07487 
0.07487 
0.19436 
0.19436 
0.09742 
0.09742 
0.12763 
0.12763 
0.12867 
0.12867 
0.15490 
0.15490 
0.13371 
0.13371 
0.04780 
0.04780 
0.12094 
0.12094 
0.05243 
0.05243 
0.11762 
0.11762 
0.09061 
0.09061 
0.15060 
0.15060 
0.14495 
0.14495 
0.13326 
0.13326 
0.14066 
0.14066 
0.15993 
0.15993 
0.12242 
0.12242 
0.18102 
0.18102 
0.13216 
0.13216 
0.11719 
0.11719 
0.10907 
0.10907 
0.18737 
0.18737 
0.14407 
0.14407 
0.09330 
0.09330 
0.06586 
0.06586 
0.11269 
0.11269 
0.19088 
0.19088 
0.10007 
0.10007 
0.01785 
0.01785 
0.08549 
0.08549 
0.21175 
0.21175 
0.16712 
0.16712 
0.10203 
0.10203 
0.08403 
0.08403 
0.10448 
0.10448 
0.12840 
0.12840 
0.12450 
0.12450 
0.11660 
0.11660 
0.07543 
0.07543 
0.08270 
0.08270 
0.13482 
0.13482 
0.10033 
0.10033 
0.09584 
0.09584 
0.06809 
0.06809 
0.11626 
0.11626 
0.18208 
0.18208 
0.04734 
0.04734 
0.15005 
0.15005 
0.14664 
0.14664 
0.17905 
0.17905 
0.14348 
0.14348 
0.08018 
0.08018 
0.06698 
0.06698 
0.10486 
0.10486 
0.18887 
0.18887 
0.15219 
0.15219 
0.17322 
0.17322 
0.20425 
0.20425 
0.11335 
0.11335 
0.12376 
0.12376 
0.21919 
0.21919 
0.16481 
0.16481 
0.11379 
0.11379 
0.10583 
0.10583 
0.12236 
0.12236 
0.10849 
0.10849 
0.18190 
0.18190 
0.18899 
0.18899 
0.09769 
0.09769 
0.11998 
0.11998 
0.13471 
0.13471 
0.13640 
0.13640 
0.06871 
0.06871 
0.04875 
0.04875 
0.05395 
0.05395 
0.21869 
0.21869 
0.16382 
0.16382 
0.11100 
0.11100 
0.20250 
0.20250 
0.11869 
0.11869 
0.10189 
0.10189 
0.19750 
0.19750 
0.10767 
0.10767 
0.05731 
0.05731 
0.15691 
0.15691 
0.16227 
0.16227 
0.18276 
0.18276 
0.28376 
0.28376 
0.15505 
0.15505 
0.05571 
0.05571 
0.19609 
0.19609 
0.11667 
0.11667 
0.10648 
0.10648 
0.09401 
0.09401 
0.17030 
0.17030 
0.16128 
0.16128 
0.04677 
0.04677 
0.09652 
0.09652 
0.04835 
0.04835 
0.05257 
0.05257 
0.22534 
0.22534 
0.08795 
0.08795 
0.16432 
0.16432 
0.08778 
0.08778 
0.15549 
0.15549 
0.10045 
0.10045 
0.16665 
0.16665 
0.10323 
0.10323 
0.11689 
0.11689 
0.15961 
0.15961 
0.09229 
0.09229 
0.14967 
0.14967 
0.06399 
0.06399 
0.14652 
0.14652 
0.10213 
0.10213 
0.08950 
0.08950 
0.17452 
0.17452 
0.20929 
0.20929 
0.16690 
0.16690 
0.10563 
0.10563 
0.20274 
0.20274 
0.07179 
0.07179 
0.13686 
0.13686 
0.16739 
0.16739 
0.13396 
0.13396 
0.03471 
0.03471 
0.15733 
0.15733 
0.20849 
0.20849 
0.04678 
0.04678 
0.09549 
0.09549 
0.07780 
0.07780 
0.09236 
0.09236 
0.14893 
0.14893 
0.15505 
0.15505 
0.20124 
0.20124 
0.15138 
0.15138 
0.05166 
0.05166 
0.04867 
0.04867 
0.05762 
0.05762 
0.11287 
0.11287 
0.13762 
0.13762 
0.07910 
0.07910 
0.07798 
0.07798 
0.04383 
0.04383 
0.15436 
0.15436 
0.12583 
0.12583 
0.05524 
0.05524 
0.12306 
0.12306 
0.13997 
0.13997 
0.13362 
0.13362 
0.12029 
0.12029 
0.11204 
0.11204 
0.12089 
0.12089 
0.02645 
0.02645 
0.09742 
0.09742 
0.14908 
0.14908 
0.06943 
0.06943 
0.02329 
0.02329 
0.13317 
0.13317 
0.18060 
0.18060 
0.11233 
0.11233 
0.12435 
0.12435 
0.10982 
0.10982 
0.13621 
0.13621 
0.16763 
0.16763 
0.13985 
0.13985 
0.13662 
0.13662 
0.07883 
0.07883 
0.12816 
0.12816 
0.21155 
0.21155 
0.16097 
0.16097 
0.07061 
0.07061 
0.08711 
0.08711 
0.17385 
0.17385 
0.17425 
0.17425 
0.12354 
0.12354 
0.07080 
0.07080 
0.08475 
0.08475 
0.07722 
0.07722 
0.10494 
0.10494 
0.08736 
0.08736 
0.10679 
0.10679 
0.10704 
0.10704 
0.10102 
0.10102 
0.09199 
0.09199 
0.10609 
0.10609 
0.20364 
0.20364 
0.11158 
0.11158 
0.18185 
0.18185 
0.20102 
0.20102 
0.13143 
0.13143 
0.08386 
0.08386 
0.14705 
0.14705 
0.12380 
0.12380 
0.19319 
0.19319 
0.17781 
0.17781 
0.09362 
0.09362 
0.06803 
0.06803 
0.15278 
0.15278 
0.02255 
0.02255 
0.10704 
0.10704 
0.13603 
0.13603 
0.01940 
0.01940 
0.08027 
0.08027 
0.05604 
0.05604 
0.10130 
0.10130 
0.09394 
0.09394 
0.14934 
0.14934 
0.18491 
0.18491 
0.11447 
0.11447 
0.08923 
0.08923 
0.15451 
0.15451 
0.10646 
0.10646 
0.08413 
0.08413 
0.13530 
0.13530 
0.09407 
0.09407 
0.16817 
0.16817 
0.11372 
0.11372 
0.13159 
0.13159 
0.09597 
0.09597 
0.16162 
0.16162 
0.13246 
0.13246 
0.15899 
0.15899 
0.15752 
0.15752 
0.09043 
0.09043 
0.12858 
0.12858 
0.17961 
0.17961 
0.16631 
0.16631 
0.13850 
0.13850 
0.13123 
0.13123 
0.07663 
0.07663 
0.06870 
0.06870 
0.06545 
0.06545 
0.17344 
0.17344 
0.15863 
0.15863 
0.10758 
0.10758 
0.16025 
0.16025 
0.07189 
0.07189 
0.10069 
0.10069 
0.10542 
0.10542 
0.14161 
0.14161 
0.09917 
0.09917 
0.10961 
0.10961 
0.07171 
0.07171 
0.10716 
0.10716 
0.12005 
0.12005 
0.08031 
0.08031 
0.10682 
0.10682 
0.11297 
0.11297 
0.13769 
0.13769 
0.09807 
0.09807 
0.13295 
0.13295 
0.14907 
0.14907 
0.08818 
0.08818 
0.07366 
0.07366 
0.13175 
0.13175 
0.18797 
0.18797 
0.15291 
0.15291 
0.14437 
0.14437 
0.09456 
0.09456 
0.16102 
0.16102 
0.07302 
0.07302 
0.12823 
0.12823 
0.12687 
0.12687 
0.09641 
0.09641 
0.14359 
0.14359 
0.21407 
0.21407 
0.13067 
0.13067 
0.08849 
0.08849 
0.10344 
0.10344 
0.10799 
0.10799 
0.12976 
0.12976 
0.16541 
0.16541 
0.23153 
0.23153 
0.12048 
0.12048 
0.18223 
0.18223 
0.15648 
0.15648 
0.08983 
0.08983 
0.14328 
0.14328 
0.08142 
0.08142 
0.10665 
0.10665 
0.08302 
0.08302 
0.13764 
0.13764 
0.16801 
0.16801 
0.11891 
0.11891 
0.08724 
0.08724 
0.19963 
0.19963 
0.12205 
0.12205 
0.06878 
0.06878 
0.16892 
0.16892 
0.11351 
0.11351 
0.12568 
0.12568 
0.15808 
0.15808 
0.08189 
0.08189 
0.15841 
0.15841 
0.15812 
0.15812 
0.12653 
0.12653 
0.11218 
0.11218 
0.17806 
0.17806 
0.05883 
0.05883 
0.10961 
0.10961 
0.11810 
0.11810 
0.17083 
0.17083 
0.14550 
0.14550 
0.12999 
0.12999 
0.11571 
0.11571 
0.09987 
0.09987 
0.12753 
0.12753 
0.20645 
0.20645 
0.15740 
0.15740 
0.16003 
0.16003 
0.09546 
0.09546 
0.15058 
0.15058 
0.17184 
0.17184 
0.15436 
0.15436 
0.03447 
0.03447 
0.06984 
0.06984 
0.05124 
0.05124 
0.07078 
0.07078 
0.10046 
0.10046 
0.10183 
0.10183 
0.14257 
0.14257 
0.17367 
0.17367 
0.21632 
0.21632 
0.14689 
0.14689 
0.16228 
0.16228 
0.11632 
0.11632 
0.12007 
0.12007 
0.14219 
0.14219 
0.10495 
0.10495 
0.13610 
0.13610 
0.06528 
0.06528 
0.14948 
0.14948 
0.17684 
0.17684 
0.12076 
0.12076 
0.20024 
0.20024 
0.07004 
0.07004 
0.14960 
0.14960 
0.11741 
0.11741 
0.05790 
0.05790 
0.24354 
0.24354 
0.15658 
0.15658 
0.13230 
0.13230 
0.07747 
0.07747 
0.11869 
0.11869 
0.22117 
0.22117 
0.18885 
0.18885 
0.06568 
0.06568 
0.12807 
0.12807 
0.07467 
0.07467 
0.15058 
0.15058 
0.10564 
0.10564 
0.06063 
0.06063 
0.15730 
0.15730 
0.21631 
0.21631 
0.11896 
0.11896 
0.06977 
0.06977 
0.21779 
0.21779 
0.13379 
0.13379 
0.13540 
0.13540 
0.12947 
0.12947 
0.14468 
0.14468 
0.07412 
0.07412 
0.15468 
0.15468 
0.16912 
0.16912 
0.10926 
0.10926 
0.17505 
0.17505 
0.18893 
0.18893 
0.14420 
0.14420 
0.11618 
0.11618 
0.13470 
0.13470 
0.14000 
0.14000 
0.13163 
0.13163 
0.16544 
0.16544 
0.14006 
0.14006 
0.03847 
0.03847 
0.13471 
0.13471 
0.07272 
0.07272 
0.02795 
0.02795 
0.21962 
0.21962 
0.16655 
0.16655 
0.05208 
0.05208 
0.12071 
0.12071 
0.13368 
0.13368 
0.17064 
0.17064 
0.16156 
0.16156 
0.10030 
0.10030 
0.12703 
0.12703 
0.04027 
0.04027 
0.16769 
0.16769 
0.09548 
0.09548 
0.06069 
0.06069 
0.21846 
0.21846 
0.13992 
0.13992 
0.17477 
0.17477 
0.18801 
0.18801 
0.18509 
0.18509 
0.03893 
0.03893 
0.17199 
0.17199 
0.13608 
0.13608 
0.13519 
0.13519 
0.12731 
0.12731 
0.19557 
0.19557 
0.12869 
0.12869 
0.10294 
0.10294 
0.13268 
0.13268 
0.15957 
0.15957 
0.20844 
0.20844 
0.15031 
0.15031 
0.13746 
0.13746 
0.10409 
0.10409 
0.12981 
0.12981 
0.13833 
0.13833 
0.07171 
0.07171 
0.15216 
0.15216 
0.18380 
0.18380 
0.16443 
0.16443 
0.16098 
0.16098 
0.09645 
0.09645 
0.18369 
0.18369 
0.08509 
0.08509 
0.06586 
0.06586 
0.16017 
0.16017 
0.15615 
0.15615 
0.15305 
0.15305 
0.09732 
0.09732 
0.07346 
0.07346 
0.21431 
0.21431 
0.07920 
0.07920 
0.14762 
0.14762 
0.12802 
0.12802 
0.20049 
0.20049 
0.05703 
0.05703 
0.13063 
0.13063 
0.18205 
0.18205 
0.10552 
0.10552 
0.11279 
0.11279 
0.12478 
0.12478 
0.16251 
0.16251 
0.15982 
0.15982 
0.12164 
0.12164 
0.09697 
0.09697 
0.09626 
0.09626 
0.24898 
0.24898 
0.17457 
0.17457 
0.11176 
0.11176 
0.15509 
0.15509 
0.17328 
0.17328 
0.09259 
0.09259 
0.17000 
0.17000 
0.20299 
0.20299 
0.11916 
0.11916 
0.12648 
0.12648 
0.05478 
0.05478 
0.17367 
0.17367 
0.08312 
0.08312 
0.09463 
0.09463 
0.09059 
0.09059 
0.12156 
0.12156 
0.10539 
0.10539 
0.08604 
0.08604 
0.09823 
0.09823 
0.09188 
0.09188 
0.11566 
0.11566 
0.09215 
0.09215 
0.09796 
0.09796 
0.17018 
0.17018 
0.13617 
0.13617 
0.14708 
0.14708 
0.12292 
0.12292 
0.12367 
0.12367 
0.10943 
0.10943 
0.10812 
0.10812 
0.03658 
0.03658 
0.09051 
0.09051 
0.15055 
0.15055 
0.05124 
0.05124 
0.11762 
0.11762 
0.16352 
0.16352 
0.06097 
0.06097 
0.15084 
0.15084 
0.16644 
0.16644 
0.12681 
0.12681 
0.14097 
0.14097 
0.16914 
0.16914 
0.02391 
0.02391 
0.07357 
0.07357 
0.08388 
0.08388 
0.15930 
0.15930 
0.12231 
0.12231 
0.21909 
0.21909 
0.09236 
0.09236 
0.06026 
0.06026 
0.13536 
0.13536 
0.10772 
0.10772 
0.12118 
0.12118 
0.09374 
0.09374 
0.10006 
0.10006 
0.06547 
0.06547 
0.12695 
0.12695 
0.10291 
0.10291 
0.11710 
0.11710 
0.18714 
0.18714 
0.10011 
0.10011 
0.06440 
0.06440 
0.14040 
0.14040 
0.11337 
0.11337 
0.25535 
0.25535 
0.05589 
0.05589 
0.19674 
0.19674 
0.16307 
0.16307 
0.14279 
0.14279 
0.24599 
0.24599 
0.15795 
0.15795 
0.12856 
0.12856 
0.21540 
0.21540 
0.07062 
0.07062 
0.15774 
0.15774 
0.20082 
0.20082 
0.18291 
0.18291 
0.12476 
0.12476 
0.16499 
0.16499 
0.07981 
0.07981 
0.14789 
0.14789 
0.08317 
0.08317 
0.19223 
0.19223 
0.11949 
0.11949 
0.14256 
0.14256 
0.12540 
0.12540 
0.05531 
0.05531 
0.11635 
0.11635 
0.24027 
0.24027 
0.03154 
0.03154 
0.16079 
0.16079 
0.09147 
0.09147 
0.12712 
0.12712 
0.03176 
0.03176 
0.10268 
0.10268 
0.14045 
0.14045 
0.18273 
0.18273 
0.13071 
0.13071 
0.10938 
0.10938 
0.11503 
0.11503 
0.14206 
0.14206 
0.12493 
0.12493 
0.13559 
0.13559 
0.17759 
0.17759 
0.02385 
0.02385 
0.08497 
0.08497 
0.14058 
0.14058 
0.26588 
0.26588 
0.11575 
0.11575 
0.10418 
0.10418 
0.09981 
0.09981 
0.14108 
0.14108 
0.06936 
0.06936 
0.09528 
0.09528 
0.09598 
0.09598 
0.11858 
0.11858 
0.11629 
0.11629 
0.13954 
0.13954 
0.13753 
0.13753 
0.13674 
0.13674 
0.10857 
0.10857 
0.08127 
0.08127 
0.07655 
0.07655 
0.12750 
0.12750 
0.18739 
0.18739 
0.07770 
0.07770 
0.09020 
0.09020 
0.07856 
0.07856 
0.12574 
0.12574 
0.06383 
0.06383 
0.15151 
0.15151 
0.14220 
0.14220 
0.15957 
0.15957 
0.11400 
0.11400 
0.14615 
0.14615 
0.09280 
0.09280 
0.07172 
0.07172 
0.07184 
0.07184 
0.08965 
0.08965 
0.12502 
0.12502 
0.09498 
0.09498 
0.17215 
0.17215 
0.20399 
0.20399 
0.08595 
0.08595 
0.07539 
0.07539 
0.13405 
0.13405 
0.14944 
0.14944 
0.11071 
0.11071 
0.09494 
0.09494 
0.09809 
0.09809 
0.13660 
0.13660 
0.11522 
0.11522 
0.12794 
0.12794 
0.14961 
0.14961 
0.13443 
0.13443 
0.18310 
0.18310 
0.19100 
0.19100 
0.08682 
0.08682 
0.09625 
0.09625 
0.12549 
0.12549 
0.08471 
0.08471 
0.20450 
0.20450 
0.18002 
0.18002 
0.10886 
0.10886 
0.13110 
0.13110 
0.18800 
0.18800 
0.16677 
0.16677 
0.09626 
0.09626 
0.10716 
0.10716 
0.04622 
0.04622 
0.11099 
0.11099 
0.17457 
0.17457 
0.08486 
0.08486 
0.08647 
0.08647 
0.14055 
0.14055 
0.20942 
0.20942 
0.09433 
0.09433 
0.19529 
0.19529 
0.06702 
0.06702 
0.15268 
0.15268 
0.07437 
0.07437 
0.06455 
0.06455 
0.11796 
0.11796 
0.18238 
0.18238 
0.16728 
0.16728 
0.11175 
0.11175 
0.04952 
0.04952 
0.08874 
0.08874 
0.09580 
0.09580 
0.10312 
0.10312 
0.14718 
0.14718 
0.08774 
0.08774 
0.21605 
0.21605 
0.07097 
0.07097 
0.18769 
0.18769 
0.16976 
0.16976 
0.11464 
0.11464 
0.10282 
0.10282 
0.18138 
0.18138 
0.17687 
0.17687 
0.12525 
0.12525 
0.11267 
0.11267 
0.20955 
0.20955 
0.09448 
0.09448 
0.14324 
0.14324 
0.13484 
0.13484 
0.10506 
0.10506 
0.18201 
0.18201 
0.10282 
0.10282 
0.12842 
0.12842 
0.14182 
0.14182 
0.15887 
0.15887 
0.16726 
0.16726 
0.10491 
0.10491 
0.17706 
0.17706 
0.10331 
0.10331 
0.11470 
0.11470 
0.11959 
0.11959 
0.17300 
0.17300 
0.04579 
0.04579 
0.16789 
0.16789 
0.15635 
0.15635 
0.22436 
0.22436 
0.13893 
0.13893 
0.05530 
0.05530 
0.08620 
0.08620 
0.12925 
0.12925 
0.13176 
0.13176 
0.27073 
0.27073 
0.08147 
0.08147 
0.08777 
0.08777 
0.09302 
0.09302 
0.12958 
0.12958 
0.05835 
0.05835 
0.10069 
0.10069 
0.14004 
0.14004 
0.08233 
0.08233 
0.05375 
0.05375 
0.17548 
0.17548 
0.12520 
0.12520 
0.20323 
0.20323 
0.11678 
0.11678 
0.15724 
0.15724 
0.15069 
0.15069 
0.07859 
0.07859 
0.12824 
0.12824 
0.17599 
0.17599 
0.21172 
0.21172 
0.17977 
0.17977 
0.08231 
0.08231 
0.23857 
0.23857 
0.09802 
0.09802 
0.12719 
0.12719 
0.14200 
0.14200 
0.17125 
0.17125 
0.17579 
0.17579 
0.12292 
0.12292 
0.09670 
0.09670 
0.10594 
0.10594 
0.07101 
0.07101 
0.13303 
0.13303 
0.12011 
0.12011 
0.10610 
0.10610 
0.08381 
0.08381 
0.04830 
0.04830 
0.05454 
0.05454 
0.02837 
0.02837 
0.13806 
0.13806 
0.17098 
0.17098 
0.09385 
0.09385 
0.11650 
0.11650 
0.06222 
0.06222 
0.20462 
0.20462 
0.10477 
0.10477 
0.12936 
0.12936 
0.04243 
0.04243 
0.15278 
0.15278 
0.11066 
0.11066 
0.16020 
0.16020 
0.13097 
0.13097 
0.08548 
0.08548 
0.14828 
0.14828 
0.10437 
0.10437 
0.14616 
0.14616 
0.14784 
0.14784 
0.15789 
0.15789 
0.14105 
0.14105 
0.13982 
0.13982 
0.05379 
0.05379 
0.18606 
0.18606 
0.09051 
0.09051 
0.09627 
0.09627 
0.14073 
0.14073 
0.16640 
0.16640 
0.17669 
0.17669 
0.13039 
0.13039 
0.19215 
0.19215 
0.09096 
0.09096 
0.18096 
0.18096 
0.13026 
0.13026 
0.16997 
0.16997 
0.16260 
0.16260 
0.13355 
0.13355 
0.06285 
0.06285 
0.15882 
0.15882 
0.19043 
0.19043 
0.13888 
0.13888 
0.21312 
0.21312 
0.17430 
0.17430 
0.06618 
0.06618 
0.17264 
0.17264 
0.07969 
0.07969 
0.13555 
0.13555 
0.07857 
0.07857 
0.20191 
0.20191 
0.15560 
0.15560 
0.16031 
0.16031 
0.15118 
0.15118 
0.05241 
0.05241 
0.07808 
0.07808 
0.14818 
0.14818 
0.12262 
0.12262 
0.13168 
0.13168 
0.08251 
0.08251 
0.06975 
0.06975 
0.16551 
0.16551 
0.16660 
0.16660 
0.06384 
0.06384 
0.21057 
0.21057 
0.13869 
0.13869 
0.15444 
0.15444 
0.05402 
0.05402 
0.05755 
0.05755 
0.07574 
0.07574 
0.07115 
0.07115 
0.13979 
0.13979 
0.07766 
0.07766 
0.15353 
0.15353 
0.10732 
0.10732 
0.11040 
0.11040 
0.09936 
0.09936 
0.14242 
0.14242 
0.09542 
0.09542 
0.10484 
0.10484 
0.11404 
0.11404 
0.11032 
0.11032 
0.08819 
0.08819 
0.12398 
0.12398 
0.13836 
0.13836 
0.07368 
0.07368 
0.07414 
0.07414 
0.08090 
0.08090 
0.14066 
0.14066 
0.12681 
0.12681 
0.10299 
0.10299 
0.13377 
0.13377 
0.12900 
0.12900 
0.19422 
0.19422 
0.13496 
0.13496 
0.21763 
0.21763 
0.20069 