<?xml version="1.0"?> 
<VTKFile type="UnstructuredGrid" version="0.1" byte_order="LittleEndian">   
<UnstructuredGrid>   
<Piece NumberOfPoints="8" NumberOfCells="1" >   
 <PointData Scalars="scalars">  
 <DataArray type="Float32" Name="outVect" NumberOfComponents="3" format="ascii">  
 -1 -1 -1 
 -1 -1 0 
 -1 0 -1 
 -1 0 0 
 0 -1 -1 
 0 -1 0 
 0 0 -1 
 0 0 0 
  </DataArray> 
  </PointData> 
  <CellData Scalars="scalars"> 
  <DataArray type="Float32" Name="scalars" format="ascii"> 
  0 
  </DataArray> 
  <DataArray type="Float32" Name="cVects" NumberOfComponents="3" format="ascii"> 
  -1 -1 -1 
   </DataArray> 
  </CellData> 
  <Points> 
  <DataArray type="Float32" NumberOfComponents="3" format="ascii"> 
    -20.00  0.00 -85.00 
    -20.00 20.00 -85.00 
    20.00  0.00 -85.00 
    20.00 20.00 -85.00 
    -20.00  0.00 -60.00 
    -20.00 20.00 -60.00 
    20.00  0.00 -60.00 
    20.00 20.00 -60.00 
 </DataArray>  
  </Points> 
  <Cells> 
  <DataArray type="Int32" Name="connectivity" format="ascii"> 
  0 4 2 6 1 5 3 7 
   </DataArray> 
  <!-- 0 9 3 12 1 10 4 13 --> 
  <DataArray type="Int32" Name="offsets" format="ascii"> 
  8 
   </DataArray> 
  <DataArray type="UInt8" Name="types" format="ascii"> 
  11 
  </DataArray> 
   </Cells>
  </Piece> 
  </UnstructuredGrid> 
  </VTKFile> 
