# vtk DataFile Version 2.0 
Xm, Ym, Zm, Uvecs, timestep 10087 
ASCII 
 
DATASET POLYDATA POINTS 512 float 
 -5.444   7.705 -71.420 
 -8.474   3.542 -72.391 
 10.573   3.636 -73.808 
  2.115   5.050 -69.551 
 -7.263  -1.314 -70.576 
  2.186   6.574 -68.385 
 -1.133   6.756 -68.844 
 -5.037   1.349 -70.036 
-15.569   8.562 -74.624 
  5.229   2.523 -69.052 
  7.747   3.641 -69.776 
  1.176  -2.904 -72.082 
  5.578   0.621 -69.837 
  4.152  -3.261 -69.316 
  1.127   4.252 -70.411 
  4.789   6.291 -68.887 
  2.208  -1.656 -73.819 
 -4.597  -7.184 -71.202 
  0.054   6.167 -66.531 
 -7.017   8.939 -66.990 
  2.618   8.549 -70.520 
 -7.433  -4.870 -71.191 
 -3.878  -0.790 -74.386 
  0.818   2.580 -65.975 
  3.335   9.215 -70.559 
 -0.825  -5.912 -71.560 
  0.617   9.070 -71.608 
 -2.257  -1.075 -73.850 
 10.687   6.003 -67.761 
 14.217   3.286 -69.173 
 -2.061   0.756 -71.466 
 -0.116   7.452 -63.561 
 -2.271   7.634 -66.344 
  3.989  11.823 -68.270 
 -3.813   6.373 -69.370 
  3.623   0.716 -69.993 
 -6.544   1.270 -65.054 
 -2.733   4.710 -68.276 
  6.742   3.141 -69.671 
  7.200  11.172 -67.787 
  9.842  -5.859 -72.988 
 -6.405  -9.822 -71.321 
 -0.546   0.384 -69.795 
  4.879  -1.228 -66.669 
 -5.111  -5.946 -70.989 
  7.675  -1.789 -68.581 
-12.425  -5.888 -73.212 
  6.758  -6.154 -68.595 
  6.848   7.629 -67.739 
 -8.111   3.700 -66.647 
-12.669   1.396 -70.861 
 -7.598   1.180 -66.431 
  5.553  -5.595 -65.051 
 -6.589   6.398 -67.081 
-10.292  -5.938 -67.912 
-10.815  11.193 -70.996 
-10.903  -6.133 -72.203 
 -3.609   5.405 -73.497 
  5.806  11.111 -65.466 
  2.092  -2.911 -72.065 
 -5.827  -5.688 -60.773 
  5.946  -0.237 -73.196 
 -7.723  -5.144 -63.938 
 -1.132   2.840 -69.196 
  8.887  -3.952 -70.031 
  2.643  -4.415 -66.147 
  6.610  -6.836 -64.900 
 -4.056   1.660 -67.826 
  2.298  10.689 -68.126 
 -6.729  -5.836 -70.930 
 10.194  -2.902 -67.559 
  3.128   6.734 -71.659 
  8.878   9.290 -66.904 
 -6.316  -1.117 -68.141 
-13.636   2.289 -70.401 
 -2.737   7.979 -65.870 
 -9.296   2.493 -63.389 
 -5.954   3.260 -65.769 
 -7.482  12.120 -71.834 
  1.547  -3.846 -65.234 
 -1.176   1.839 -75.305 
 -1.882  12.769 -66.701 
 -9.954  -1.795 -71.839 
  0.200  12.179 -64.281 
  3.763   3.954 -65.145 
-10.702   4.605 -67.593 
  4.112  11.000 -67.240 
 -1.662   7.547 -62.133 
 15.490  -0.043 -72.300 
  1.245  -9.527 -68.301 
 -2.373   9.004 -67.337 
 -5.052  -8.021 -68.377 
 -2.546   9.505 -73.914 
-11.867   8.453 -70.425 
 11.669   0.176 -67.189 
 -4.457  12.253 -61.684 
 -6.634   3.477 -71.029 
 -0.709  -5.684 -70.072 
 -9.392   7.871 -68.968 
 -4.704   4.406 -62.144 
 -0.369  -9.916 -66.567 
  2.918   9.360 -61.718 
  7.983  12.096 -71.141 
  6.101   6.251 -72.898 
  6.646   3.471 -72.587 
 -5.947   3.551 -61.384 
  3.018   7.460 -73.604 
 11.431  -1.260 -67.923 
 12.476   7.245 -68.188 
-11.301   1.956 -65.213 
 -6.248  11.444 -64.005 
  2.051   3.986 -63.657 
 -3.617   6.682 -66.250 
  4.908 -10.432 -71.232 
 -0.338  -2.098 -68.755 
-10.067   6.021 -68.538 
-15.108   6.072 -70.410 
  3.728  -8.072 -65.423 
 -6.668 -12.068 -67.223 
 -6.045   0.053 -63.075 
 -5.639   8.810 -69.150 
  9.325 -10.631 -68.077 
 -1.027 -10.821 -71.816 
  4.875   6.224 -64.637 
  7.220   2.902 -65.435 
  1.102  -4.548 -65.668 
 -8.117  -6.323 -70.749 
  3.906 -10.825 -71.151 
-10.999  -5.008 -69.951 
-13.573  -2.360 -66.163 
  6.050  -1.016 -71.695 
  2.596  -4.640 -63.683 
 -1.056  -2.634 -67.856 
 -2.383  -3.956 -61.195 
-11.279  -1.220 -66.558 
  4.098  11.523 -73.483 
  5.326  10.393 -76.007 
 -9.597  -3.135 -67.447 
 -2.878  -0.111 -65.590 
-13.951   9.761 -72.570 
 -2.741   0.176 -66.707 
 -9.481  12.085 -64.024 
  0.116  10.551 -62.701 
  7.300  -5.483 -64.697 
 -2.227   7.276 -69.824 
-10.628  -9.800 -69.064 
 11.182  -0.069 -73.786 
  6.851   2.641 -66.185 
  5.184   7.322 -67.970 
 -6.694  -8.338 -67.375 
-13.846 -10.383 -70.921 
 -3.202  -3.086 -69.982 
 -5.888   6.409 -73.055 
 -0.415  -7.610 -65.703 
-12.693   6.271 -66.338 
  8.140  -4.989 -63.376 
 -4.091  -7.896 -65.538 
-14.357  -7.478 -75.659 
  2.671   6.838 -65.591 
-10.808  12.070 -65.419 
  5.578   5.354 -71.161 
 -7.202   2.380 -65.456 
 -4.238 -11.564 -67.206 
-12.431   8.152 -66.310 
 -5.428   7.738 -65.784 
 -4.740   1.747 -63.201 
  9.755   8.620 -68.108 
 -6.072 -10.453 -66.012 
 -1.102  -5.780 -62.788 
  7.993  -5.468 -68.978 
 -2.684  11.996 -71.301 
 10.000  10.163 -67.847 
 -6.114  -4.112 -68.251 
  0.231  -3.424 -64.090 
 -3.070  -2.717 -62.858 
  7.328 -10.792 -73.887 
 11.491  -2.610 -65.323 
 -8.309 -11.146 -64.254 
  6.818   9.751 -66.731 
 -1.364   2.820 -66.998 
 -1.992  11.964 -66.350 
 15.390   5.445 -66.160 
 -8.658  -4.380 -58.704 
  1.369   6.773 -63.729 
 -7.067   9.807 -75.776 
  7.437  -8.075 -66.566 
  3.307   3.210 -69.338 
-11.598   3.159 -64.805 
 -3.167  11.108 -76.014 
 -3.775  12.607 -71.725 
 12.236   7.759 -67.665 
 -7.983  -1.309 -61.300 
 16.026   7.825 -68.803 
-12.027   2.514 -65.651 
-13.988 -11.651 -67.341 
  8.944   8.793 -71.716 
 -1.774  12.229 -68.181 
 -7.954  -3.087 -65.357 
 14.323  -6.622 -73.073 
-15.407  -5.375 -75.593 
 -5.651  -0.719 -62.730 
  6.912  -8.684 -67.579 
-12.691   6.517 -69.346 
 10.379  -2.408 -71.382 
  7.316   7.756 -74.445 
 11.611   2.880 -72.594 
  2.297  -2.452 -64.309 
 10.410 -10.943 -66.304 
  7.809  10.192 -73.180 
-13.572  -9.977 -71.609 
-11.957  12.160 -73.384 
 16.816  -0.061 -67.117 
 -2.710  -5.891 -70.698 
  4.263  -1.168 -61.384 
 -8.673  -7.782 -76.102 
  3.931  -3.824 -61.853 
 -0.836   1.418 -68.921 
 -4.276  -3.168 -72.698 
 -4.768   8.893 -70.323 
 -2.054 -10.442 -71.643 
 -7.581  10.148 -66.793 
 14.840  10.976 -75.294 
 15.581   1.484 -72.464 
-14.570   4.620 -69.673 
 12.168  -7.923 -67.022 
 13.424  -0.477 -69.197 
 11.681  -5.814 -70.257 
 11.811   2.535 -67.323 
 -2.458  10.290 -74.989 
 -5.883   5.375 -75.679 
  7.556   4.325 -63.542 
  5.197  -1.515 -64.350 
 -0.294  -3.827 -69.554 
  6.208   6.143 -64.433 
  0.428   7.736 -75.896 
  7.295   2.559 -70.011 
  5.444   9.364 -72.370 
  9.608   0.841 -71.303 
-15.876   9.837 -72.689 
 -9.651  11.267 -66.105 
 -9.063 -11.811 -67.002 
-11.079  11.205 -65.787 
 15.139   3.680 -66.512 
 -1.840   6.197 -73.614 
 -3.914   8.159 -71.869 
-13.291   0.371 -67.755 
  6.717 -12.027 -70.455 
 -7.140  -3.200 -68.494 
  1.936  -1.007 -63.401 
 15.765   0.917 -65.048 
-10.166  -0.898 -62.879 
  3.578   0.696 -65.353 
 -8.471  11.700 -76.212 
-10.713   3.355 -72.567 
-14.075   2.377 -67.123 
 12.288   2.731 -64.074 
 -4.075  -1.580 -62.959 
-13.137   6.544 -67.505 
 -2.745   8.517 -59.792 
  7.835 -12.557 -72.521 
-15.034   5.207 -72.291 
  9.381   0.190 -65.221 
 14.973  10.305 -65.621 
 -3.466  -1.958 -65.898 
-11.476  -5.894 -65.175 
 -8.781   0.652 -73.560 
-10.822  -3.463 -74.481 
  3.602 -10.582 -69.695 
 11.576   9.614 -62.694 
  2.271  11.404 -65.311 
 -8.162 -10.868 -75.162 
 -4.102   2.774 -63.840 
  5.371 -11.908 -67.300 
  0.917   3.007 -66.588 
 11.439   9.555 -66.568 
 -4.980   0.410 -75.744 
-15.040   0.711 -71.642 
 -0.266  -8.632 -68.758 
-11.238  13.290 -65.910 
 -3.945  -9.697 -67.982 
 10.694   4.790 -63.787 
 -4.060  -1.865 -66.031 
-10.866   2.630 -74.406 
 12.114  -5.355 -70.495 
 -9.874   1.995 -74.097 
 -8.707   4.053 -75.462 
 14.657  -3.727 -73.827 
 -4.132  -0.384 -64.483 
  0.224   3.841 -71.844 
  1.311  -0.766 -73.139 
 17.344   8.468 -73.263 
  9.057   3.905 -64.913 
 12.837   1.299 -72.581 
-10.257  -9.320 -76.903 
 14.704  -3.133 -66.218 
 15.457  -2.934 -74.987 
  8.656   9.829 -65.073 
 12.761  -4.358 -67.484 
  9.145  -7.882 -72.041 
 -4.811  -6.240 -70.776 
  3.986 -10.241 -72.620 
 -5.909  -0.023 -75.507 
-15.868  -8.762 -73.752 
 -3.060  -6.452 -62.581 
  1.339  -8.746 -73.150 
 12.886  -1.485 -73.600 
 -5.026 -12.179 -64.898 
  7.739  -3.900 -75.873 
 -7.398  -0.033 -62.713 
 11.814  10.771 -71.608 
 12.860  -9.260 -68.618 
-14.887   1.975 -75.445 
-13.553   3.113 -67.905 
  7.946  -7.015 -76.500 
 -8.848  12.784 -64.121 
  4.864   3.947 -69.342 
 12.134   2.355 -68.767 
 16.437  -4.124 -73.391 
 -7.907   0.856 -71.578 
 11.426  11.101 -66.692 
 -7.151   9.773 -66.884 
 15.778   5.297 -64.776 
-15.781   9.471 -73.440 
 -4.745  -0.079 -68.220 
-11.981   8.255 -72.612 
 -4.562  -0.328 -74.093 
  1.274 -10.558 -72.407 
 -3.987  -4.162 -71.870 
  5.915   6.645 -71.793 
  9.034  -6.517 -63.630 
 -4.851   2.812 -67.060 
  1.531  12.037 -69.611 
  2.628  -8.146 -70.364 
-13.582  11.558 -74.755 
 -1.176   2.535 -67.631 
 -9.965  -3.042 -70.815 
  3.207  -7.838 -65.635 
  5.801  -8.330 -62.978 
 -9.107   4.088 -72.158 
 -3.033   5.032 -66.421 
 -8.504  12.555 -69.863 
 11.168   4.953 -70.641 
  6.575   3.910 -63.522 
  1.155  -2.244 -61.365 
 10.084 -10.427 -60.709 
 -8.252  12.259 -71.250 
 -6.070   9.485 -67.304 
  5.738   3.470 -69.733 
 11.124  -2.290 -63.395 
  1.079   7.060 -73.655 
-13.154  -7.317 -65.582 
 14.360  -0.929 -72.822 
 11.137  -9.264 -64.335 
 -1.521  -5.680 -77.891 
-10.247 -11.605 -62.840 
  9.951  -5.562 -65.743 
 -3.476  11.695 -68.004 
 -1.537 -11.888 -67.238 
-11.071  -7.098 -72.963 
-15.655   3.235 -74.840 
 -9.898   6.196 -62.315 
 -0.361  -9.143 -60.516 
  2.524  -8.160 -60.823 
  0.914  -8.009 -67.591 
 14.195 -11.667 -74.070 
 -9.449  -1.941 -64.704 
  6.974   0.599 -72.875 
 -0.827 -12.442 -63.766 
  3.728 -10.985 -76.371 
 -2.253  -4.828 -60.096 
 -1.135   1.569 -65.016 
  0.448  -6.107 -61.308 
  7.809   0.506 -73.822 
 13.344  -0.853 -62.560 
 13.761   0.314 -63.030 
  6.975  -0.794 -60.362 
  3.523   0.300 -66.429 
  5.976   8.866 -61.338 
 17.330  -2.232 -66.780 
 17.336  -8.903 -69.144 
  8.271 -10.719 -64.611 
-10.843  -9.656 -76.352 
 -2.859 -10.229 -61.781 
 -5.128  -3.099 -67.215 
  5.739  10.834 -61.270 
 11.560   2.536 -64.047 
  1.961  -6.646 -66.718 
 -0.239  -1.840 -67.733 
  9.967  -9.505 -62.505 
  9.795  -8.759 -62.744 
  9.166   1.519 -72.304 
  2.038  -9.998 -71.077 
 -8.569 -12.209 -66.683 
 -2.672 -12.273 -72.830 
 -1.931  12.826 -60.668 
 -5.977  -6.710 -62.085 
 -6.962  -9.242 -65.249 
  1.428  -8.512 -70.809 
 15.155  -5.803 -66.186 
 14.847  -7.106 -66.304 
-12.877  12.342 -65.410 
  9.079 -10.095 -62.120 
 10.031  -6.581 -76.462 
 14.776 -11.564 -65.200 
-15.579  -1.136 -72.510 
-13.796   8.363 -69.945 
 -4.593  -7.155 -67.904 
-11.626  -2.023 -66.189 
 11.750   7.460 -63.566 
 -7.281 -12.166 -71.449 
 13.498  11.890 -74.656 
 10.572   7.670 -58.924 
  4.079   3.322 -57.918 
  4.517   9.091 -61.822 
  1.671  -7.050 -66.432 
 13.662  11.601 -63.948 
 -4.710 -12.419 -65.292 
 14.895   0.870 -63.813 
 -3.656  12.482 -64.565 
 -4.445   0.764 -63.651 
 12.282   5.451 -74.395 
  7.383 -13.177 -62.915 
 12.009  11.075 -64.837 
 14.397   8.890 -64.815 
-13.835  -0.915 -68.691 
 -9.392  -5.974 -68.192 
 -0.544  10.708 -60.740 
-14.668  11.207 -76.966 
-12.309   7.998 -61.936 
  1.468  -0.036 -61.238 
  1.131  -5.081 -64.435 
 14.883 -10.255 -74.365 
 -0.670   1.344 -59.705 
  9.537  -4.475 -62.599 
 15.810  -9.854 -64.724 
  8.463 -10.659 -69.469 
 13.149  10.263 -64.622 
 15.146   3.048 -62.062 
 -0.927  -5.693 -73.762 
 10.436 -10.381 -63.103 
-15.014  -6.069 -76.684 
  3.775  -4.686 -75.808 
 17.465  -8.162 -65.793 
 14.736 -13.102 -67.740 
 -9.697  -0.808 -70.131 
 -9.160   8.145 -67.464 
-13.573  12.851 -69.402 
 -4.630  11.533 -64.333 
 10.023   9.111 -62.503 
  7.651  12.746 -62.145 
 -6.216  -8.162 -67.398 
-12.719  -8.069 -69.680 
  8.535  -9.963 -75.942 
-12.478  -3.829 -75.638 
 -2.766   8.244 -77.052 
  2.764  10.663 -67.359 
 -2.696 -11.052 -64.303 
 -9.794   8.997 -65.682 
  0.601  -0.459 -72.513 
 15.616  -0.162 -64.702 
 14.195   4.419 -65.692 
 -7.211   0.469 -60.713 
 10.805  -0.959 -75.469 
 15.050  -0.863 -62.150 
 16.925  11.002 -66.949 
-11.311 -12.728 -63.242 
  3.197  -3.154 -63.741 
  0.446  -8.184 -68.155 
 10.366   0.572 -68.757 
  5.066  -0.489 -77.145 
 -6.998  -2.172 -68.102 
  7.729  10.628 -58.104 
 -9.834  10.997 -77.865 
 -6.598   3.603 -74.960 
 16.680 -11.564 -69.650 
 15.350  -7.346 -69.588 
  2.934 -11.629 -64.773 
 15.974 -11.198 -72.939 
 -3.345  -2.783 -66.639 
 18.443 -12.158 -67.669 
 16.942   2.715 -72.869 
 -5.561  -6.641 -77.589 
 16.187  -8.303 -70.846 
 15.867  -2.026 -74.648 
 14.021  -0.666 -63.007 
 13.551  11.075 -69.236 
-12.155   6.181 -72.088 
  5.355  -7.482 -67.799 
 10.998  -2.271 -73.325 
  3.778  -9.513 -73.771 
-11.616   2.078 -72.941 
 -1.131  -1.620 -73.415 
-10.878   1.840 -68.757 
-15.644   6.988 -77.712 
-14.383   1.011 -65.403 
-10.535   4.505 -75.487 
 17.502  -8.623 -73.285 
 -9.998 -10.853 -62.219 
 18.363  12.422 -71.373 
 10.237  -0.398 -67.042 
 -9.758  10.460 -75.218 
  1.434   8.881 -74.981 
 11.512  10.575 -69.084 
 13.791   1.859 -75.145 
-10.445  -1.192 -63.094 
 -9.389  -9.612 -64.125 
  2.451  -2.038 -65.429 
 15.897  10.655 -71.091 
-13.730   0.620 -74.620 
  8.011   2.603 -61.281 
  5.031   7.015 -76.726 
  6.516   2.976 -68.005 

 VERTICES 512 1024 
1 0 
1 1 
1 2 
1 3 
1 4 
1 5 
1 6 
1 7 
1 8 
1 9 
1 10 
1 11 
1 12 
1 13 
1 14 
1 15 
1 16 
1 17 
1 18 
1 19 
1 20 
1 21 
1 22 
1 23 
1 24 
1 25 
1 26 
1 27 
1 28 
1 29 
1 30 
1 31 
1 32 
1 33 
1 34 
1 35 
1 36 
1 37 
1 38 
1 39 
1 40 
1 41 
1 42 
1 43 
1 44 
1 45 
1 46 
1 47 
1 48 
1 49 
1 50 
1 51 
1 52 
1 53 
1 54 
1 55 
1 56 
1 57 
1 58 
1 59 
1 60 
1 61 
1 62 
1 63 
1 64 
1 65 
1 66 
1 67 
1 68 
1 69 
1 70 
1 71 
1 72 
1 73 
1 74 
1 75 
1 76 
1 77 
1 78 
1 79 
1 80 
1 81 
1 82 
1 83 
1 84 
1 85 
1 86 
1 87 
1 88 
1 89 
1 90 
1 91 
1 92 
1 93 
1 94 
1 95 
1 96 
1 97 
1 98 
1 99 
1 100 
1 101 
1 102 
1 103 
1 104 
1 105 
1 106 
1 107 
1 108 
1 109 
1 110 
1 111 
1 112 
1 113 
1 114 
1 115 
1 116 
1 117 
1 118 
1 119 
1 120 
1 121 
1 122 
1 123 
1 124 
1 125 
1 126 
1 127 
1 128 
1 129 
1 130 
1 131 
1 132 
1 133 
1 134 
1 135 
1 136 
1 137 
1 138 
1 139 
1 140 
1 141 
1 142 
1 143 
1 144 
1 145 
1 146 
1 147 
1 148 
1 149 
1 150 
1 151 
1 152 
1 153 
1 154 
1 155 
1 156 
1 157 
1 158 
1 159 
1 160 
1 161 
1 162 
1 163 
1 164 
1 165 
1 166 
1 167 
1 168 
1 169 
1 170 
1 171 
1 172 
1 173 
1 174 
1 175 
1 176 
1 177 
1 178 
1 179 
1 180 
1 181 
1 182 
1 183 
1 184 
1 185 
1 186 
1 187 
1 188 
1 189 
1 190 
1 191 
1 192 
1 193 
1 194 
1 195 
1 196 
1 197 
1 198 
1 199 
1 200 
1 201 
1 202 
1 203 
1 204 
1 205 
1 206 
1 207 
1 208 
1 209 
1 210 
1 211 
1 212 
1 213 
1 214 
1 215 
1 216 
1 217 
1 218 
1 219 
1 220 
1 221 
1 222 
1 223 
1 224 
1 225 
1 226 
1 227 
1 228 
1 229 
1 230 
1 231 
1 232 
1 233 
1 234 
1 235 
1 236 
1 237 
1 238 
1 239 
1 240 
1 241 
1 242 
1 243 
1 244 
1 245 
1 246 
1 247 
1 248 
1 249 
1 250 
1 251 
1 252 
1 253 
1 254 
1 255 
1 256 
1 257 
1 258 
1 259 
1 260 
1 261 
1 262 
1 263 
1 264 
1 265 
1 266 
1 267 
1 268 
1 269 
1 270 
1 271 
1 272 
1 273 
1 274 
1 275 
1 276 
1 277 
1 278 
1 279 
1 280 
1 281 
1 282 
1 283 
1 284 
1 285 
1 286 
1 287 
1 288 
1 289 
1 290 
1 291 
1 292 
1 293 
1 294 
1 295 
1 296 
1 297 
1 298 
1 299 
1 300 
1 301 
1 302 
1 303 
1 304 
1 305 
1 306 
1 307 
1 308 
1 309 
1 310 
1 311 
1 312 
1 313 
1 314 
1 315 
1 316 
1 317 
1 318 
1 319 
1 320 
1 321 
1 322 
1 323 
1 324 
1 325 
1 326 
1 327 
1 328 
1 329 
1 330 
1 331 
1 332 
1 333 
1 334 
1 335 
1 336 
1 337 
1 338 
1 339 
1 340 
1 341 
1 342 
1 343 
1 344 
1 345 
1 346 
1 347 
1 348 
1 349 
1 350 
1 351 
1 352 
1 353 
1 354 
1 355 
1 356 
1 357 
1 358 
1 359 
1 360 
1 361 
1 362 
1 363 
1 364 
1 365 
1 366 
1 367 
1 368 
1 369 
1 370 
1 371 
1 372 
1 373 
1 374 
1 375 
1 376 
1 377 
1 378 
1 379 
1 380 
1 381 
1 382 
1 383 
1 384 
1 385 
1 386 
1 387 
1 388 
1 389 
1 390 
1 391 
1 392 
1 393 
1 394 
1 395 
1 396 
1 397 
1 398 
1 399 
1 400 
1 401 
1 402 
1 403 
1 404 
1 405 
1 406 
1 407 
1 408 
1 409 
1 410 
1 411 
1 412 
1 413 
1 414 
1 415 
1 416 
1 417 
1 418 
1 419 
1 420 
1 421 
1 422 
1 423 
1 424 
1 425 
1 426 
1 427 
1 428 
1 429 
1 430 
1 431 
1 432 
1 433 
1 434 
1 435 
1 436 
1 437 
1 438 
1 439 
1 440 
1 441 
1 442 
1 443 
1 444 
1 445 
1 446 
1 447 
1 448 
1 449 
1 450 
1 451 
1 452 
1 453 
1 454 
1 455 
1 456 
1 457 
1 458 
1 459 
1 460 
1 461 
1 462 
1 463 
1 464 
1 465 
1 466 
1 467 
1 468 
1 469 
1 470 
1 471 
1 472 
1 473 
1 474 
1 475 
1 476 
1 477 
1 478 
1 479 
1 480 
1 481 
1 482 
1 483 
1 484 
1 485 
1 486 
1 487 
1 488 
1 489 
1 490 
1 491 
1 492 
1 493 
1 494 
1 495 
1 496 
1 497 
1 498 
1 499 
1 500 
1 501 
1 502 
1 503 
1 504 
1 505 
1 506 
1 507 
1 508 
1 509 
1 510 
1 511 
POINT_DATA 512 
SCALARS MeanU double 1 
LOOKUP_TABLE default
0.06839 
0.07714 
0.12748 
0.17777 
0.06941 
0.08317 
0.08929 
0.14563 
0.05641 
0.13970 
0.15444 
0.10404 
0.15815 
0.20588 
0.11580 
0.13770 
0.10325 
0.13673 
0.14596 
0.16412 
0.14946 
0.17548 
0.07598 
0.18140 
0.15289 
0.11648 
0.12341 
0.12862 
0.10335 
0.06342 
0.14444 
0.22784 
0.09704 
0.10758 
0.13739 
0.12098 
0.15996 
0.08905 
0.16787 
0.04751 
0.14028 
0.14266 
0.11074 
0.17604 
0.14625 
0.19533 
0.12531 
0.10988 
0.09196 
0.15965 
0.07663 
0.13437 
0.17498 
0.13954 
0.19458 
0.09654 
0.20137 
0.08064 
0.12383 
0.14055 
0.11248 
0.15963 
0.16205 
0.14098 
0.14131 
0.14884 
0.10833 
0.18431 
0.14840 
0.11719 
0.06086 
0.14301 
0.08665 
0.12323 
0.13700 
0.12769 
0.15217 
0.16574 
0.10487 
0.14002 
0.06400 
0.19515 
0.10339 
0.12212 
0.17957 
0.14304 
0.09579 
0.20293 
0.04815 
0.16056 
0.13269 
0.15102 
0.06423 
0.10426 
0.13628 
0.17377 
0.07589 
0.20918 
0.09684 
0.08047 
0.16936 
0.15254 
0.08840 
0.15211 
0.21204 
0.09755 
0.18431 
0.06423 
0.03442 
0.17898 
0.09831 
0.15363 
0.10587 
0.15823 
0.14856 
0.16624 
0.03011 
0.21825 
0.11055 
0.09786 
0.12309 
0.12625 
0.07493 
0.18805 
0.12019 
0.15308 
0.16723 
0.15752 
0.16963 
0.08935 
0.18459 
0.17147 
0.13829 
0.10676 
0.12125 
0.17706 
0.10684 
0.13850 
0.15801 
0.06031 
0.13425 
0.09192 
0.12332 
0.08497 
0.10451 
0.23900 
0.06853 
0.11140 
0.12252 
0.10347 
0.12261 
0.17924 
0.07268 
0.13526 
0.24505 
0.12189 
0.13537 
0.15614 
0.18178 
0.05203 
0.11889 
0.18988 
0.12169 
0.05673 
0.18681 
0.07897 
0.05783 
0.09480 
0.08692 
0.15780 
0.11551 
0.06670 
0.14513 
0.14005 
0.11391 
0.17405 
0.09011 
0.10486 
0.09961 
0.15875 
0.15856 
0.12638 
0.11438 
0.19004 
0.05699 
0.05908 
0.19551 
0.07132 
0.14229 
0.11337 
0.04280 
0.12125 
0.06332 
0.16817 
0.08278 
0.12336 
0.14449 
0.14904 
0.02850 
0.11986 
0.08675 
0.16462 
0.05538 
0.09931 
0.12838 
0.17060 
0.16971 
0.09879 
0.14486 
0.11971 
0.07983 
0.08216 
0.20172 
0.14900 
0.05870 
0.20525 
0.11555 
0.12751 
0.09893 
0.09303 
0.09932 
0.11374 
0.06005 
0.04502 
0.08907 
0.16574 
0.05895 
0.11591 
0.07821 
0.03827 
0.15857 
0.15713 
0.17398 
0.18063 
0.10830 
0.16322 
0.09742 
0.14341 
0.03797 
0.07440 
0.09553 
0.05387 
0.09830 
0.12984 
0.06770 
0.16887 
0.13101 
0.06702 
0.12023 
0.05305 
0.14825 
0.16490 
0.13235 
0.09159 
0.13187 
0.14482 
0.09278 
0.05774 
0.19386 
0.15692 
0.12642 
0.18771 
0.05127 
0.13426 
0.16514 
0.10882 
0.08336 
0.19002 
0.11512 
0.12998 
0.21696 
0.12575 
0.17293 
0.15576 
0.06796 
0.09129 
0.11240 
0.16389 
0.04757 
0.09250 
0.19379 
0.17557 
0.07988 
0.05384 
0.11320 
0.08900 
0.07216 
0.14305 
0.11408 
0.11778 
0.14789 
0.07204 
0.13858 
0.13391 
0.11624 
0.11056 
0.15138 
0.07397 
0.12297 
0.13748 
0.19432 
0.11033 
0.14604 
0.11454 
0.10550 
0.05752 
0.22680 
0.09992 
0.11389 
0.05220 
0.09775 
0.15071 
0.22675 
0.12817 
0.15836 
0.14497 
0.11945 
0.06534 
0.09286 
0.11956 
0.11761 
0.11309 
0.07147 
0.16837 
0.07877 
0.13416 
0.19962 
0.08705 
0.09618 
0.10437 
0.15572 
0.12974 
0.10907 
0.05927 
0.12717 
0.05487 
0.19506 
0.15622 
0.08008 
0.13723 
0.14412 
0.14206 
0.19940 
0.12897 
0.10381 
0.09518 
0.13755 
0.17240 
0.12323 
0.09609 
0.13011 
0.09791 
0.15162 
0.04899 
0.10412 
0.10475 
0.09585 
0.15723 
0.15213 
0.10683 
0.09348 
0.22941 
0.21943 
0.14862 
0.16745 
0.13834 
0.13733 
0.08807 
0.07818 
0.19882 
0.17448 
0.18381 
0.11599 
0.11957 
0.19793 
0.20283 
0.18326 
0.16312 
0.04673 
0.05141 
0.07441 
0.18684 
0.13173 
0.17200 
0.16733 
0.15885 
0.18305 
0.12385 
0.12899 
0.13811 
0.17674 
0.11877 
0.15537 
0.08824 
0.11342 
0.19427 
0.10535 
0.16551 
0.09258 
0.11914 
0.05622 
0.11362 
0.06071 
0.07994 
0.15247 
0.09265 
0.14336 
0.12950 
0.20787 
0.12598 
0.16362 
0.14937 
0.15492 
0.16334 
0.17929 
0.12011 
0.13441 
0.09861 
0.19194 
0.13597 
0.04214 
0.16668 
0.09917 
0.16520 
0.13346 
0.15946 
0.16996 
0.07146 
0.14561 
0.13406 
0.18770 
0.02594 
0.10091 
0.11249 
0.14959 
0.09752 
0.15353 
0.16133 
0.15728 
0.15342 
0.14880 
0.10053 
0.12156 
0.12664 
0.11601 
0.18717 
0.05096 
0.12568 
0.21345 
0.15037 
0.08934 
0.19399 
0.07081 
0.07221 
0.06640 
0.12507 
0.16887 
0.15469 
0.07791 
0.04022 
0.13822 
0.04788 
0.03700 
0.11925 
0.12178 
0.07017 
0.07212 
0.17189 
0.09786 
0.10328 
0.11002 
0.18187 
0.03346 
0.05944 
0.07797 
0.04660 
0.10598 
0.05629 
0.14387 
0.10184 
0.06104 
0.06505 
0.04156 
0.12869 
0.10069 
0.08624 
0.04888 
0.18741 
0.06109 
0.16633 
0.08367 
0.13666 
0.07162 
0.05163 
0.15435 
0.07507 
0.11538 
0.16377 
0.08624 
0.11801 
0.06456 
0.14886 
0.10918 
0.10062 
0.13186 
0.07915 
0.18593 
0.09097 
0.13854 
0.15155 
0.07844 
0.11811 

 VECTORS Umean float 
0.02850 0.06100 0.01200 
0.06700 0.03400 -0.01750 
0.01850 0.07350 -0.10250 
-0.00550 0.17050 -0.05000 
0.02400 0.06300 0.01650 
-0.02850 0.07800 0.00450 
0.03650 0.08000 0.01550 
0.01750 0.14450 0.00450 
0.00500 0.04900 -0.02750 
-0.00450 0.11000 -0.08600 
0.00300 0.11850 -0.09900 
-0.00450 0.10200 -0.02000 
0.02750 0.14800 -0.04850 
0.07300 0.12250 -0.14850 
0.01600 0.09550 0.06350 
0.01350 0.13300 -0.03300 
0.00700 0.10300 -0.00150 
0.01350 0.13200 0.03300 
0.02200 0.12700 0.06850 
0.11750 0.11400 -0.01150 
0.05300 0.13800 -0.02200 
0.05400 0.15850 -0.05250 
0.01650 0.07400 -0.00500 
0.05150 0.16550 -0.05350 
0.01650 0.14150 -0.05550 
0.07000 0.08150 -0.04500 
-0.10000 0.06950 -0.02000 
0.00700 0.12800 0.01050 
0.03000 0.05300 -0.08350 
0.05650 0.01800 -0.02250 
0.08350 0.11050 -0.04100 
0.10250 0.20000 0.03750 
0.00350 0.09500 0.01950 
-0.04200 0.09900 -0.00300 
0.10100 0.08800 0.03050 
-0.00250 0.12050 -0.01050 
0.06150 0.14750 -0.00700 
0.04000 0.07750 0.01800 
-0.01600 0.13850 -0.09350 
-0.03150 0.03150 0.01650 
0.06200 0.01450 -0.12500 
0.07500 0.11650 0.03400 
-0.00200 0.10400 0.03800 
0.09050 0.12050 -0.09100 
0.03000 0.14250 0.01350 
0.07750 0.10750 -0.14350 
0.06150 0.09600 -0.05200 
0.09900 0.04650 -0.01050 
-0.00250 0.05900 -0.07050 
0.06350 0.11150 0.09500 
0.00450 0.07650 -0.00000 
0.06100 0.11750 -0.02300 
0.03700 0.16800 -0.03200 
0.06300 0.11550 0.04650 
-0.06600 0.16850 -0.07150 
0.07400 0.06200 -0.00000 
0.05650 0.14700 -0.12550 
0.06350 0.04550 -0.02000 
0.04050 0.11350 0.02850 
0.04000 0.12700 -0.04500 
-0.00100 0.10050 -0.05050 
0.01500 0.10700 -0.11750 
0.04850 0.15250 -0.02550 
0.06150 0.12350 0.02900 
0.06550 0.06250 -0.10850 
0.06000 0.06350 -0.12050 
-0.07000 0.07000 -0.04400 
0.05550 0.15750 -0.07800 
0.03300 0.12550 -0.07200 
-0.01550 0.10600 -0.04750 
0.03450 0.03150 -0.03900 
-0.03900 0.12100 -0.06550 
0.02650 0.08250 -0.00050 
0.04100 0.11600 -0.00700 
0.05300 0.10450 -0.07100 
0.01150 0.12700 0.00650 
-0.04300 0.09300 -0.11250 
0.02100 0.13200 0.09800 
0.02600 0.08900 -0.04900 
0.07200 0.07950 -0.09000 
0.04250 0.04700 -0.00900 
-0.00350 0.18450 -0.06350 
-0.00000 0.10250 0.01350 
0.06150 0.10450 -0.01450 
0.11650 0.12850 0.04650 
0.08900 0.10400 -0.04150 
0.00400 0.09400 -0.01800 
0.04550 0.16600 0.10750 
0.02800 -0.00950 -0.03800 
0.09200 0.09600 -0.09000 
0.04350 0.12350 -0.02150 
-0.00100 0.14400 0.04550 
-0.03350 0.04650 -0.02900 
0.09000 0.04100 0.03300 
0.06550 0.07050 -0.09650 
0.06800 0.13450 -0.08650 
0.05050 0.05300 0.02000 
0.09800 0.14850 -0.11000 
0.08850 0.00800 -0.03850 
-0.01200 0.07850 0.01300 
0.08700 0.10300 -0.10250 
0.00300 0.15250 -0.00150 
-0.06450 -0.02150 -0.05650 
0.01750 0.09500 -0.11750 
0.03850 0.18950 -0.08700 
-0.02250 0.09300 0.01900 
0.05550 0.14850 -0.09400 
0.02800 0.04600 -0.03500 
0.02400 0.02350 -0.00750 
-0.03400 0.12450 -0.12400 
-0.02700 0.09400 0.01000 
0.04650 0.14300 0.03150 
0.04300 0.09600 0.01200 
0.11600 0.01150 -0.10700 
0.07250 0.12950 -0.00650 
0.15600 0.04350 0.03750 
0.02350 0.01850 0.00350 
0.03450 0.11300 -0.18350 
0.08200 0.07300 -0.01300 
0.01800 0.08900 -0.03650 
0.01800 0.12050 -0.01750 
0.06200 0.07950 0.07600 
0.02550 0.05800 -0.04000 
0.09200 0.10000 -0.13000 
0.08250 0.07400 -0.04650 
0.08350 0.10300 -0.07650 
0.06950 0.14400 -0.04900 
0.11150 0.05450 -0.09700 
0.05250 0.12850 -0.09750 
0.00250 0.07500 -0.04850 
0.08150 0.12600 -0.10750 
0.04200 0.10300 -0.13050 
0.08100 0.11000 -0.02150 
0.04350 0.09100 -0.03500 
0.04250 0.09850 -0.05650 
-0.13250 0.05550 -0.10350 
-0.07150 0.03000 -0.07350 
0.08600 0.07500 -0.07850 
0.04350 0.12200 0.09050 
0.02500 0.05450 -0.00650 
0.09700 0.08800 0.02950 
0.05000 0.07500 -0.01800 
0.03400 0.11400 -0.03250 
0.03050 0.07900 0.00700 
0.06650 0.08000 -0.01000 
-0.01750 0.09750 -0.21750 
-0.04400 0.05200 0.00750 
0.07450 0.08050 -0.01950 
0.05900 0.10500 -0.02250 
0.02200 0.10100 -0.00450 
0.02200 0.11850 -0.02250 
0.10150 0.14650 0.01900 
0.05650 0.00450 -0.04550 
0.06750 0.07800 -0.08750 
0.04400 0.15750 0.18250 
0.00950 0.12150 0.00200 
0.09250 0.08900 -0.04300 
-0.03850 0.11400 -0.09950 
0.04400 0.17550 0.01750 
0.03500 0.03850 0.00050 
0.03950 0.10550 -0.03800 
0.06000 0.17350 0.04850 
0.08250 0.07350 -0.05100 
0.04000 0.03400 0.02150 
0.11950 0.13900 0.03600 
0.02000 0.04600 0.06100 
0.03750 0.04250 0.01150 
0.05950 0.06550 -0.03400 
0.04400 0.07150 -0.02250 
0.11900 0.06000 -0.08450 
-0.04500 0.08950 -0.05750 
-0.04250 0.04100 -0.03100 
0.10750 0.05500 -0.08050 
0.05900 0.11800 -0.04700 
0.05450 0.06200 -0.07850 
0.10700 0.02200 -0.13550 
0.04750 0.05000 0.05800 
0.05100 0.06700 -0.06250 
0.03100 0.09450 0.00550 
0.04900 0.13700 0.06350 
0.00250 0.15850 0.00350 
0.10950 0.06300 -0.00350 
0.00150 0.11050 -0.02950 
0.10350 0.15100 -0.05100 
-0.01300 0.02300 -0.05050 
0.02200 0.00600 -0.05450 
0.03200 0.19250 -0.01200 
0.02400 0.04250 -0.05200 
-0.07250 0.04200 -0.11500 
-0.05000 0.09150 -0.04450 
-0.00600 0.04000 -0.01400 
-0.03400 0.06200 -0.09850 
0.01900 0.05700 -0.02000 
-0.02100 0.15550 -0.06050 
-0.00900 0.07400 -0.03600 
0.00150 0.06050 -0.10750 
0.02450 0.14000 -0.02600 
0.05550 0.09450 -0.10100 
-0.00200 0.01600 -0.02350 
0.01050 0.07550 -0.09250 
0.00100 0.06450 -0.05800 
0.10750 0.12400 -0.01300 
0.04400 0.03300 0.00650 
0.08900 0.04400 -0.00250 
-0.04950 0.04000 -0.11150 
0.10250 0.06750 -0.11850 
0.07400 0.10050 -0.11500 
0.07650 0.06250 -0.00000 
-0.07300 0.02550 -0.12250 
-0.02000 0.11800 -0.00250 
0.07700 0.01950 0.00800 
0.02250 0.07900 0.00150 
0.14750 0.09400 -0.10050 
0.05450 0.12550 -0.05900 
0.04300 0.02850 -0.02800 
0.12350 0.13500 -0.09300 
0.04850 0.09450 0.04550 
0.09400 0.07550 -0.04150 
-0.02350 0.07300 -0.06250 
-0.02400 0.06950 -0.05700 
0.05300 0.08400 -0.00050 
-0.03800 0.06400 -0.08600 
0.03850 -0.02200 -0.04050 
-0.00950 0.01600 -0.04100 
0.02700 0.08450 -0.00800 
0.13600 0.07450 -0.05850 
0.05500 0.01750 0.01200 
0.02950 0.09500 -0.05950 
-0.03000 0.04500 -0.05650 
0.03350 -0.00000 0.01850 
0.09050 0.12850 -0.02100 
0.08750 0.10750 -0.07400 
0.08750 0.14600 -0.03600 
0.08500 0.15150 -0.04950 
-0.07150 0.03150 -0.07500 
0.00350 0.14050 -0.08300 
-0.02150 0.04800 -0.08200 
0.02150 0.14150 -0.00900 
0.02900 0.00050 -0.02450 
0.00300 0.04650 -0.05800 
0.01850 0.08050 -0.04800 
0.04750 0.01500 -0.02050 
0.05250 0.08250 -0.01000 
0.04350 0.12200 -0.00900 
0.01850 0.05700 -0.03150 
0.00350 0.15000 -0.07750 
0.10350 0.01450 -0.07900 
0.04700 0.04650 0.01100 
0.08400 0.07000 -0.05000 
0.04150 0.03250 0.00600 
0.01550 0.10500 -0.10350 
0.10600 0.12350 -0.02650 
-0.13000 0.02050 -0.01400 
0.05900 0.06600 -0.02350 
0.00250 0.12850 -0.02950 
0.08850 0.07100 -0.09000 
-0.00350 0.09200 0.01150 
0.02450 0.05100 -0.01150 
0.03150 0.19100 -0.01050 
0.13850 0.02000 -0.07100 
0.05850 0.10450 -0.04050 
0.08700 0.12650 -0.10800 
0.02800 0.03900 0.01800 
0.04550 0.12350 0.02650 
0.00950 0.10750 -0.12500 
0.09650 -0.04000 0.03050 
-0.03850 0.07250 0.01450 
0.13950 0.08450 -0.09750 
0.04300 0.10550 0.01650 
0.06600 0.10400 0.04150 
0.03350 0.05750 -0.20650 
0.05300 0.10200 0.05100 
0.08600 0.14700 -0.03000 
0.08150 0.11400 0.06800 
-0.01650 0.06500 -0.01100 
0.05000 0.07200 0.02550 
0.08450 -0.06450 -0.03650 
0.08500 0.10300 -0.09500 
0.02500 0.03600 0.01850 
0.04550 0.07850 0.01800 
0.07700 0.12650 -0.12500 
0.05900 0.16150 -0.03550 
0.07500 0.02750 -0.00050 
0.01600 0.03900 0.03350 
0.08700 0.05900 -0.04200 
0.06050 0.06050 -0.02450 
0.04150 0.02600 -0.05300 
0.01300 0.14150 0.01650 
0.04300 0.10550 0.00600 
0.01800 0.11500 0.01800 
-0.06100 0.11450 0.07100 
0.04300 0.05000 -0.02900 
0.03750 0.10600 -0.08100 
0.05200 0.09800 0.07500 
0.07000 0.06150 -0.06950 
0.01250 0.04200 -0.10150 
0.03400 0.14400 0.03200 
0.01050 0.06100 0.04050 
0.09700 0.06250 0.04250 
0.02550 0.13500 -0.00500 
0.10050 0.15350 -0.06400 
0.02750 0.08200 -0.06850 
0.03850 0.12600 -0.06300 
0.03300 0.10550 -0.03000 
0.04200 0.09500 0.01850 
-0.03100 0.04150 -0.02500 
0.09650 0.06700 -0.19400 
-0.03450 0.03100 -0.08850 
0.01400 0.06350 -0.09350 
-0.01850 0.00550 -0.04850 
0.08400 -0.03000 0.04000 
0.02550 0.07450 -0.12850 
0.00550 0.21900 -0.05850 
-0.02400 0.03650 -0.12050 
-0.01500 0.15300 -0.03800 
0.00400 0.12850 -0.06700 
0.05350 0.03000 -0.10250 
-0.02500 0.03150 -0.05150 
-0.03700 0.07200 0.04550 
-0.06750 0.09850 -0.00600 
0.07800 0.08200 -0.03200 
0.06900 0.05400 0.07150 
0.03600 0.05750 -0.02250 
0.03350 0.16500 -0.00000 
0.03200 0.06900 -0.02050 
0.06150 0.11000 0.04600 
0.07850 0.13250 -0.12700 
0.05150 0.05900 -0.03800 
-0.02150 0.09200 -0.01800 
-0.00500 0.10350 -0.01250 
0.04550 0.13300 0.06700 
-0.03250 0.12550 0.00500 
0.07000 0.04500 -0.07050 
0.03600 0.03150 -0.03500 
0.04400 0.11050 0.04500 
-0.00700 0.05000 -0.02150 
0.03350 0.09850 -0.16500 
0.07900 0.10500 -0.08450 
0.06350 0.04450 -0.02000 
0.06300 0.11900 0.02650 
0.05800 0.03200 -0.12800 
0.08000 0.06150 -0.10000 
0.05200 0.15400 -0.11550 