# vtk DataFile Version 2.0 
Xm, Ym, Zm, Uvecs, timestep 10146 
ASCII 
 
DATASET POLYDATA POINTS 499 float 
  1.518   6.386 -72.674 
  3.271   3.888 -70.538 
  0.030   8.639 -71.231 
  2.685  -0.658 -71.309 
 -1.486  10.324 -69.346 
 -2.240   4.108 -69.004 
 -6.055  -5.146 -72.758 
 -3.746  11.429 -72.962 
  3.274   8.263 -69.649 
  3.911  -1.957 -73.265 
 10.459   3.603 -69.713 
 -0.355   7.101 -68.131 
  4.617  -0.447 -71.153 
 -6.953  -5.633 -71.754 
 -7.127   3.871 -70.197 
 -6.707   5.926 -68.637 
  7.321   7.591 -68.541 
  4.350   8.296 -69.194 
  4.941  -4.482 -76.707 
-12.541  -4.041 -72.963 
 -0.941   5.859 -67.789 
 -9.383  -1.199 -71.542 
-12.945   4.287 -74.777 
  7.205   9.991 -71.364 
 -0.801   2.135 -67.797 
 -0.058  12.166 -67.120 
  0.382  -0.356 -72.870 
 -0.886   7.841 -72.689 
  5.800   2.181 -67.973 
  1.988   2.861 -69.338 
 11.855   8.553 -71.065 
 -3.410  -6.357 -70.389 
  6.237  -1.057 -68.513 
  3.027   3.746 -66.981 
  3.373  -9.593 -68.014 
 -9.755  -0.587 -74.609 
  0.955  -0.160 -70.647 
-13.458   1.492 -73.488 
 13.356   6.295 -73.629 
  0.694  10.246 -68.981 
  6.632   4.226 -68.364 
  3.833   0.980 -71.145 
 -8.715   7.148 -69.777 
 -4.019  11.333 -66.293 
  5.774  -1.232 -72.088 
  3.009 -10.844 -73.766 
  2.954 -11.421 -71.292 
 -8.419   3.247 -68.470 
  4.603  -1.736 -71.820 
-11.265  -9.254 -72.359 
  2.551  -6.551 -71.031 
 -8.082   6.146 -69.764 
  1.216  -1.675 -69.151 
 -8.401   2.448 -72.341 
 11.267   6.347 -68.042 
  1.033  -7.518 -72.745 
 -0.435  11.131 -70.671 
  0.887  -1.715 -71.504 
  5.488  -0.908 -69.364 
  7.309   7.433 -72.667 
 -1.269  -0.603 -66.511 
  2.227  -5.273 -70.362 
  8.457  -9.312 -70.863 
-11.255   4.551 -74.811 
  5.540  -3.596 -65.002 
  0.801   4.507 -73.043 
  3.215  11.876 -71.560 
 -8.596  -4.431 -71.314 
 13.611   7.020 -68.113 
 12.976   1.345 -66.598 
 -7.953   7.153 -64.339 
 -3.058  -1.848 -64.438 
 -3.721   5.831 -67.108 
  4.585  -3.309 -65.417 
 -3.370  -4.420 -68.107 
 -7.598   6.880 -68.121 
 15.498   0.539 -68.033 
 12.665  -0.712 -70.823 
-11.296  -1.330 -69.522 
  0.722  12.336 -65.775 
 10.044   9.292 -67.316 
  8.947   9.704 -71.118 
  9.025 -12.924 -66.934 
 12.515  -0.375 -67.090 
 -5.345   9.946 -65.166 
  2.259   7.735 -65.593 
 15.756  -6.676 -72.084 
  0.979   2.809 -65.576 
  1.893  -8.267 -62.202 
 -0.524   5.729 -60.819 
  1.192   4.019 -62.801 
 -9.968   9.625 -76.061 
 -3.484   3.676 -66.870 
 10.748 -11.032 -69.545 
 -1.014   4.040 -63.097 
 -9.976  -5.443 -75.267 
 -8.276 -10.634 -67.549 
 -6.075   3.849 -61.892 
  3.488  -8.532 -70.984 
  6.521  -9.974 -67.242 
 -6.274 -10.083 -68.965 
 -5.661   8.420 -62.069 
  7.011   0.797 -65.999 
 -8.893   8.944 -65.573 
  3.318   4.262 -67.517 
-15.727   1.384 -74.516 
  3.515  -1.626 -64.195 
 -1.217  11.788 -70.019 
  2.301  -6.132 -63.651 
 -5.111   7.034 -63.727 
 10.556  -3.411 -66.812 
 -7.258  -3.517 -72.505 
 -0.657  -6.354 -72.866 
  2.402   6.343 -64.877 
-12.815   5.967 -72.967 
 -6.361  -2.540 -73.773 
  7.967  -4.373 -68.014 
 -0.941   0.703 -63.245 
  7.520 -10.681 -72.868 
 -0.921  12.852 -67.440 
 -1.502  -7.059 -67.087 
-10.667   8.616 -66.190 
 -7.585 -12.595 -66.627 
  9.220  -0.855 -67.545 
  2.834  -2.298 -64.794 
 -4.268  10.462 -71.236 
 -8.357  10.636 -64.380 
-12.133  -6.053 -69.105 
 -4.184  -9.062 -66.575 
  4.788  -1.401 -63.572 
 11.180  -3.941 -67.422 
 -3.617  10.028 -63.730 
  3.598  -2.234 -67.178 
-12.518 -11.569 -72.009 
 -7.253  12.011 -68.506 
-11.055   6.241 -67.478 
  7.657  10.800 -64.442 
 13.961   7.444 -73.914 
  4.547   8.345 -65.770 
  1.000 -10.393 -65.160 
  9.752  -7.127 -72.938 
  0.091   0.327 -70.066 
 -1.722  -2.080 -71.001 
-12.736   6.467 -66.904 
 -2.136  -8.180 -67.991 
 15.652   2.300 -69.246 
 10.363  -3.811 -69.535 
 -3.168   4.555 -64.547 
-13.378  -5.450 -75.685 
  1.401  -2.809 -68.696 
  2.228   8.816 -60.466 
 -8.325  -6.760 -72.252 
-13.451  10.431 -66.654 
  8.120 -10.009 -72.054 
 -3.976  -0.218 -65.710 
-10.397  11.840 -72.194 
  4.777 -10.692 -65.210 
 -0.825  11.605 -65.108 
-11.047  -3.269 -74.977 
 -0.423 -12.640 -67.101 
-11.418  -4.077 -72.950 
-13.863   2.260 -68.564 
-11.065  -0.885 -65.355 
  4.800   6.183 -69.465 
 -0.556  -7.791 -67.618 
  8.163   8.570 -68.460 
  7.363   5.880 -62.770 
-10.361 -11.324 -75.774 
  0.943   5.104 -63.182 
 -4.146 -12.663 -67.838 
  7.885   2.711 -72.419 
  9.847  -5.997 -66.411 
  0.040  -2.304 -69.578 
-12.636   2.219 -65.453 
  4.565  -9.819 -70.841 
-14.939  -4.199 -75.335 
 -8.972  -6.046 -69.966 
 -3.991   2.804 -62.418 
 -6.584   4.332 -75.732 
-10.871   9.349 -68.340 
  0.768   4.988 -70.065 
 -0.175   2.348 -66.590 
-11.759   9.897 -65.103 
 -5.370 -11.485 -67.219 
 10.278   6.794 -70.683 
 16.576  -2.070 -68.562 
  2.209  -3.895 -66.950 
 14.151   2.739 -65.989 
-11.490   0.750 -69.149 
  8.556   5.466 -62.939 
  9.194  -1.281 -72.310 
 15.604  11.753 -71.028 
  0.373  -2.886 -70.137 
  1.481  -5.268 -64.065 
  6.357  -3.861 -64.377 
  2.551   4.697 -63.912 
-13.218  -2.301 -72.409 
 12.685  -5.947 -68.742 
 12.619   3.376 -67.673 
  2.640  11.715 -64.977 
 13.877   1.172 -69.923 
 -0.219  -4.467 -77.704 
  7.385   3.348 -66.251 
  0.260  -6.494 -65.865 
  4.832  10.568 -68.643 
-11.148  10.361 -66.319 
 16.779   5.305 -71.996 
  0.614  -0.562 -62.992 
 -6.832  -7.729 -66.694 
 -1.867   3.418 -75.382 
 17.820   5.529 -70.181 
  9.168   0.935 -73.246 
-14.282  -2.886 -76.469 
 -2.851  -7.158 -69.917 
  6.966  -6.053 -69.322 
  4.822   3.212 -70.190 
  6.046   7.134 -72.868 
 16.269   5.318 -68.894 
 11.349 -10.163 -72.848 
 13.311   3.143 -66.073 
  5.448   4.514 -70.197 
  9.373  -1.209 -66.653 
 15.124  -0.426 -67.672 
-13.793   4.998 -71.989 
 -6.338  -9.587 -71.272 
 -7.393 -11.138 -71.108 
  6.436  -4.306 -74.004 
-10.587   8.880 -69.338 
  3.450   4.708 -61.965 
  6.658   0.172 -73.361 
 12.625   3.242 -65.096 
  3.538   0.449 -73.821 
 -5.300  -3.864 -70.967 
 -0.339  -8.466 -67.222 
  5.130  -0.451 -75.680 
 -0.830  10.296 -63.294 
 -9.348  -4.030 -70.737 
 -6.043   5.778 -77.259 
-12.576  12.247 -72.765 
 -5.915  -6.920 -70.905 
 -1.470   2.310 -68.829 
 14.181   8.996 -63.165 
  3.149 -11.497 -68.971 
 11.591   7.761 -69.873 
 10.559   1.367 -64.531 
 -1.196 -11.053 -64.516 
  0.314   0.504 -62.814 
 15.110   1.174 -66.357 
 -2.623   9.479 -59.224 
 -9.258  -3.378 -65.450 
 -2.340   9.835 -77.882 
  6.777   2.604 -63.225 
  4.556 -10.236 -70.737 
 -3.615   3.970 -72.531 
  5.146   7.830 -66.432 
 12.570  -9.804 -72.354 
-11.249   4.859 -61.483 
 -8.142  -9.918 -72.500 
 14.651  -8.098 -72.356 
  9.236  -4.545 -66.114 
 -1.594   9.470 -74.535 
 13.589 -10.663 -71.433 
-11.945  -7.498 -70.772 
 -7.171   1.271 -70.540 
 -0.943  11.010 -61.236 
  1.608   7.189 -74.730 
 12.357  12.227 -70.163 
-11.762   2.163 -74.532 
 -4.515  -2.359 -71.500 
 -3.356  -8.210 -65.676 
  8.855  -7.104 -69.589 
 -2.320  -5.671 -73.977 
 11.476   8.611 -64.953 
 13.056  -9.824 -72.145 
 -5.836  -9.256 -69.450 
 10.744   9.268 -70.102 
 -0.871  -2.136 -70.848 
 -6.281 -12.220 -67.496 
  2.790  -1.785 -62.127 
 -0.348  10.204 -65.269 
 -2.899   7.257 -73.207 
 11.180   4.428 -68.832 
 13.683  -5.497 -68.241 
 -8.151   8.904 -65.041 
  7.541   7.530 -61.968 
  4.165   0.012 -62.192 
-10.756  -4.179 -74.003 
-15.748   7.307 -75.941 
-14.947   5.232 -70.540 
 10.285  -9.540 -68.817 
 15.153  -7.986 -69.088 
 12.783   3.289 -61.275 
-14.240  -7.536 -75.751 
 12.317   7.716 -62.645 
 -7.456  -9.854 -66.984 
  6.682   2.203 -72.368 
 12.897  -1.267 -73.314 
 13.257  12.194 -72.023 
 -5.698   7.602 -64.155 
 -5.170  -9.612 -69.267 
-15.215   2.294 -76.893 
  3.064  10.619 -62.165 
  1.616 -10.148 -69.346 
 -1.991  -3.269 -70.862 
  5.241  -8.033 -68.822 
  8.371   0.966 -72.915 
 15.189   2.500 -70.499 
  6.661 -11.004 -75.499 
 -2.294  10.166 -74.698 
 -3.486 -12.173 -69.516 
  7.412  12.601 -65.687 
 -6.240  10.189 -63.442 
 11.300 -11.602 -68.244 
 -0.728   3.175 -66.957 
 -0.043   9.882 -72.877 
 -3.147  -3.152 -74.139 
 -9.200  10.390 -62.974 
 13.757  -5.278 -63.912 
-15.177  -1.858 -75.876 
 -8.804   4.922 -71.027 
 -6.646   2.704 -69.990 
  9.726  -1.904 -64.912 
 10.958  -8.575 -61.582 
  3.298 -11.767 -64.611 
  0.025   0.043 -68.429 
 -0.867   6.216 -69.174 
  6.393  -9.131 -63.031 
  5.776  -3.110 -63.040 
  0.592 -10.030 -73.427 
 -0.682   9.270 -66.371 
-14.559   8.326 -76.676 
 13.820  12.494 -72.340 
  2.635  -8.715 -74.254 
 -3.412  12.695 -66.917 
 -8.696  -7.412 -67.976 
-10.939  -7.203 -65.019 
  4.999 -11.790 -65.174 
 10.597  -7.095 -66.065 
 11.867  -4.630 -67.361 
  7.139 -11.910 -65.356 
 10.003  11.542 -61.898 
 -4.278  10.500 -69.615 
-10.087   5.254 -70.862 
 -7.711  -8.456 -65.304 
  7.370  -7.736 -74.404 
-10.398  12.593 -65.703 
 -8.799  -1.868 -66.028 
  0.474   3.770 -63.636 
 -2.205  -6.203 -68.949 
  3.220  10.316 -68.547 
  6.659  -0.871 -60.602 
 -4.138  11.674 -74.530 
 -1.726  -6.117 -69.105 
 -8.559  -9.502 -67.359 
  9.887  -4.088 -64.162 
  5.511   4.062 -70.444 
 -6.327   2.852 -61.918 
 16.051   7.396 -68.697 
 -3.472 -11.305 -62.431 
 12.880  10.297 -61.494 
  4.040   6.746 -62.900 
 15.285   8.376 -69.629 
 17.127  -2.817 -67.055 
 -0.851  -4.909 -67.226 
 -9.835   0.704 -71.731 
 -4.115   1.398 -62.916 
 10.960 -10.665 -66.025 
 -9.558   7.426 -61.912 
  0.357  11.319 -73.148 
 12.686  11.085 -61.434 
 -8.102   1.310 -68.069 
-13.671   6.900 -72.969 
-10.398   4.423 -64.205 
-10.787   5.451 -72.292 
 14.381  -0.435 -67.084 
 10.125  12.968 -69.178 
 10.886   4.493 -63.279 
 11.398  -5.888 -60.067 
  8.227  12.848 -67.741 
-11.926  11.838 -69.023 
 13.611  -1.030 -64.557 
  8.963   1.987 -61.680 
 -4.408   1.748 -77.216 
  8.738  -0.160 -68.705 
-15.250 -11.672 -74.083 
 13.095 -12.553 -66.425 
 -2.465  -8.995 -73.932 
  8.070  -8.885 -64.422 
-11.187   1.801 -73.457 
  0.750   9.447 -70.948 
 14.753   4.171 -65.919 
 -3.601 -10.160 -71.885 
-11.565   5.181 -72.681 
-10.038   9.797 -62.318 
-12.306   6.713 -70.234 
  9.614  -3.293 -63.252 
 13.348   0.400 -73.732 
 -2.164  13.216 -61.787 
 -3.031  -9.643 -69.876 
  8.790  10.199 -67.953 
 13.438   8.133 -62.160 
-15.700  -1.906 -73.882 
  6.867   1.475 -62.554 
 -3.316  11.055 -70.885 
 -0.166  -6.354 -74.912 
-11.271   2.543 -73.799 
-16.003   8.547 -72.658 
 -6.279  -4.267 -70.960 
 -4.850  12.543 -72.504 
  4.024   8.885 -60.770 
 10.348 -11.585 -60.832 
 -3.997   8.863 -64.824 
 17.617   7.156 -69.730 
  2.623   2.319 -72.065 
 -4.434 -12.440 -73.744 
-13.041   1.973 -71.886 
 -2.057   4.270 -63.540 
-13.813   4.574 -73.267 
 12.063  -9.197 -62.632 
 15.938  -3.075 -64.395 
 17.092  -5.173 -66.142 
  9.053  -9.479 -63.431 
 12.104 -11.762 -66.451 
 15.027   0.841 -70.526 
-11.098 -10.875 -70.144 
 16.851  -6.470 -64.406 
 10.232 -12.665 -65.509 
 -7.268   2.883 -55.535 
-10.964  -2.173 -64.573 
  9.448   4.477 -74.484 
-15.521  12.417 -70.929 
  1.748   1.779 -59.849 
 17.361 -13.200 -69.715 
  7.443  -6.715 -68.438 
-10.884  12.572 -60.912 
  6.610  -5.457 -74.065 
  9.566   9.032 -68.094 
 15.337   4.281 -74.326 
  5.694   9.777 -66.676 
  9.921  -0.509 -61.954 
  5.026   3.680 -73.806 
 10.531  -4.104 -72.263 
  6.748  10.268 -70.586 
 17.233  -2.724 -74.847 
 11.716 -10.466 -63.953 
 14.201   6.256 -74.112 
 15.692  12.631 -67.629 
 14.445  -9.239 -64.017 
 14.704  -3.875 -71.905 
-11.244  -2.134 -77.077 
 -9.131 -12.219 -64.525 
 14.294  -6.568 -71.177 
 -0.084   8.847 -61.913 
  5.904  -1.703 -74.604 
 -4.434 -11.353 -62.844 
 11.406  -2.931 -68.802 
 13.868   6.373 -64.013 
 14.782 -13.211 -69.549 
 -2.821   8.534 -62.776 
  5.437   4.988 -61.404 
 17.526  11.975 -71.362 
 16.971 -10.712 -71.242 
 10.207 -12.832 -62.339 
 14.936   3.291 -62.983 
 -9.950  11.350 -76.633 
 -7.659   8.626 -55.423 
 -4.284 -11.357 -66.057 
 14.285  10.166 -69.483 
 -8.477   3.574 -63.486 
 -8.523  -6.668 -68.898 
-10.335  -3.369 -67.610 
  2.790  -2.863 -63.698 
 -1.949  12.360 -74.938 
  8.399 -12.029 -69.944 
  5.205 -11.680 -69.375 
-15.654   9.141 -74.135 
 -0.613  -1.501 -69.105 
  0.888   6.694 -64.509 
-14.462   9.776 -69.498 
-10.278   2.768 -66.924 
 -5.317  11.768 -61.035 
 -1.954   5.101 -72.850 
 13.429 -10.389 -62.422 
  6.996   2.077 -64.749 
  4.573  -5.619 -76.701 
  0.092  12.328 -66.255 
 -0.038 -12.242 -68.111 
 13.477   6.666 -70.331 
 14.051  -9.788 -63.243 
  0.679   6.990 -67.549 
  1.962 -10.669 -75.466 
 -0.151  -3.410 -68.738 
-13.229 -11.825 -77.660 
-14.325   3.955 -73.371 
  0.599  13.594 -66.302 
 13.035  -4.877 -66.219 
 -1.909  -8.508 -69.988 
  4.431   5.526 -61.725 
-14.863   5.221 -76.394 

 VERTICES 499 998 
1 0 
1 1 
1 2 
1 3 
1 4 
1 5 
1 6 
1 7 
1 8 
1 9 
1 10 
1 11 
1 12 
1 13 
1 14 
1 15 
1 16 
1 17 
1 18 
1 19 
1 20 
1 21 
1 22 
1 23 
1 24 
1 25 
1 26 
1 27 
1 28 
1 29 
1 30 
1 31 
1 32 
1 33 
1 34 
1 35 
1 36 
1 37 
1 38 
1 39 
1 40 
1 41 
1 42 
1 43 
1 44 
1 45 
1 46 
1 47 
1 48 
1 49 
1 50 
1 51 
1 52 
1 53 
1 54 
1 55 
1 56 
1 57 
1 58 
1 59 
1 60 
1 61 
1 62 
1 63 
1 64 
1 65 
1 66 
1 67 
1 68 
1 69 
1 70 
1 71 
1 72 
1 73 
1 74 
1 75 
1 76 
1 77 
1 78 
1 79 
1 80 
1 81 
1 82 
1 83 
1 84 
1 85 
1 86 
1 87 
1 88 
1 89 
1 90 
1 91 
1 92 
1 93 
1 94 
1 95 
1 96 
1 97 
1 98 
1 99 
1 100 
1 101 
1 102 
1 103 
1 104 
1 105 
1 106 
1 107 
1 108 
1 109 
1 110 
1 111 
1 112 
1 113 
1 114 
1 115 
1 116 
1 117 
1 118 
1 119 
1 120 
1 121 
1 122 
1 123 
1 124 
1 125 
1 126 
1 127 
1 128 
1 129 
1 130 
1 131 
1 132 
1 133 
1 134 
1 135 
1 136 
1 137 
1 138 
1 139 
1 140 
1 141 
1 142 
1 143 
1 144 
1 145 
1 146 
1 147 
1 148 
1 149 
1 150 
1 151 
1 152 
1 153 
1 154 
1 155 
1 156 
1 157 
1 158 
1 159 
1 160 
1 161 
1 162 
1 163 
1 164 
1 165 
1 166 
1 167 
1 168 
1 169 
1 170 
1 171 
1 172 
1 173 
1 174 
1 175 
1 176 
1 177 
1 178 
1 179 
1 180 
1 181 
1 182 
1 183 
1 184 
1 185 
1 186 
1 187 
1 188 
1 189 
1 190 
1 191 
1 192 
1 193 
1 194 
1 195 
1 196 
1 197 
1 198 
1 199 
1 200 
1 201 
1 202 
1 203 
1 204 
1 205 
1 206 
1 207 
1 208 
1 209 
1 210 
1 211 
1 212 
1 213 
1 214 
1 215 
1 216 
1 217 
1 218 
1 219 
1 220 
1 221 
1 222 
1 223 
1 224 
1 225 
1 226 
1 227 
1 228 
1 229 
1 230 
1 231 
1 232 
1 233 
1 234 
1 235 
1 236 
1 237 
1 238 
1 239 
1 240 
1 241 
1 242 
1 243 
1 244 
1 245 
1 246 
1 247 
1 248 
1 249 
1 250 
1 251 
1 252 
1 253 
1 254 
1 255 
1 256 
1 257 
1 258 
1 259 
1 260 
1 261 
1 262 
1 263 
1 264 
1 265 
1 266 
1 267 
1 268 
1 269 
1 270 
1 271 
1 272 
1 273 
1 274 
1 275 
1 276 
1 277 
1 278 
1 279 
1 280 
1 281 
1 282 
1 283 
1 284 
1 285 
1 286 
1 287 
1 288 
1 289 
1 290 
1 291 
1 292 
1 293 
1 294 
1 295 
1 296 
1 297 
1 298 
1 299 
1 300 
1 301 
1 302 
1 303 
1 304 
1 305 
1 306 
1 307 
1 308 
1 309 
1 310 
1 311 
1 312 
1 313 
1 314 
1 315 
1 316 
1 317 
1 318 
1 319 
1 320 
1 321 
1 322 
1 323 
1 324 
1 325 
1 326 
1 327 
1 328 
1 329 
1 330 
1 331 
1 332 
1 333 
1 334 
1 335 
1 336 
1 337 
1 338 
1 339 
1 340 
1 341 
1 342 
1 343 
1 344 
1 345 
1 346 
1 347 
1 348 
1 349 
1 350 
1 351 
1 352 
1 353 
1 354 
1 355 
1 356 
1 357 
1 358 
1 359 
1 360 
1 361 
1 362 
1 363 
1 364 
1 365 
1 366 
1 367 
1 368 
1 369 
1 370 
1 371 
1 372 
1 373 
1 374 
1 375 
1 376 
1 377 
1 378 
1 379 
1 380 
1 381 
1 382 
1 383 
1 384 
1 385 
1 386 
1 387 
1 388 
1 389 
1 390 
1 391 
1 392 
1 393 
1 394 
1 395 
1 396 
1 397 
1 398 
1 399 
1 400 
1 401 
1 402 
1 403 
1 404 
1 405 
1 406 
1 407 
1 408 
1 409 
1 410 
1 411 
1 412 
1 413 
1 414 
1 415 
1 416 
1 417 
1 418 
1 419 
1 420 
1 421 
1 422 
1 423 
1 424 
1 425 
1 426 
1 427 
1 428 
1 429 
1 430 
1 431 
1 432 
1 433 
1 434 
1 435 
1 436 
1 437 
1 438 
1 439 
1 440 
1 441 
1 442 
1 443 
1 444 
1 445 
1 446 
1 447 
1 448 
1 449 
1 450 
1 451 
1 452 
1 453 
1 454 
1 455 
1 456 
1 457 
1 458 
1 459 
1 460 
1 461 
1 462 
1 463 
1 464 
1 465 
1 466 
1 467 
1 468 
1 469 
1 470 
1 471 
1 472 
1 473 
1 474 
1 475 
1 476 
1 477 
1 478 
1 479 
1 480 
1 481 
1 482 
1 483 
1 484 
1 485 
1 486 
1 487 
1 488 
1 489 
1 490 
1 491 
1 492 
1 493 
1 494 
1 495 
1 496 
1 497 
1 498 
POINT_DATA 499 
SCALARS MeanU double 1 
LOOKUP_TABLE default
0.12292 
0.13714 
0.11276 
0.17927 
0.15518 
0.16066 
0.11326 
0.10347 
0.05308 
0.12961 
0.13687 
0.04471 
0.24298 
0.09253 
0.23619 
0.16456 
0.05497 
0.05705 
0.08992 
0.13493 
0.11873 
0.07425 
0.18928 
0.03778 
0.26354 
0.07234 
0.18908 
0.16503 
0.25145 
0.27367 
0.17198 
0.11615 
0.30478 
0.24713 
0.10617 
0.09429 
0.24064 
0.17797 
0.15133 
0.08707 
0.13578 
0.17650 
0.13740 
0.10118 
0.19738 
0.10841 
0.12350 
0.27202 
0.23377 
0.08608 
0.09760 
0.18723 
0.19830 
0.19677 
0.13515 
0.14644 
0.09210 
0.14457 
0.29143 
0.12024 
0.22296 
0.11099 
0.13217 
0.12943 
0.38024 
0.17172 
0.09736 
0.11576 
0.11479 
0.11378 
0.09249 
0.24770 
0.07409 
0.28724 
0.21318 
0.09417 
0.15143 
0.18901 
0.18812 
0.13657 
0.03906 
0.14525 
0.09669 
0.13572 
0.07720 
0.09480 
0.07768 
0.16636 
0.10982 
0.19748 
0.15841 
0.16747 
0.18567 
0.09418 
0.16486 
0.12320 
0.12048 
0.17306 
0.09799 
0.09474 
0.09500 
0.11826 
0.23070 
0.05825 
0.19378 
0.21697 
0.18829 
0.12428 
0.36884 
0.08194 
0.20298 
0.09483 
0.11017 
0.12276 
0.21125 
0.12300 
0.31981 
0.09544 
0.10785 
0.06629 
0.19911 
0.04776 
0.08738 
0.11198 
0.15512 
0.18143 
0.10664 
0.07667 
0.06294 
0.34098 
0.16103 
0.13028 
0.24162 
0.13558 
0.10468 
0.12112 
0.03863 
0.25160 
0.09807 
0.08745 
0.15492 
0.25115 
0.18092 
0.11024 
0.14717 
0.06788 
0.20821 
0.17336 
0.12233 
0.19964 
0.13943 
0.18240 
0.09730 
0.13796 
0.17845 
0.17499 
0.10630 
0.08950 
0.18971 
0.10250 
0.14449 
0.16899 
0.15792 
0.10006 
0.09399 
0.06201 
0.11178 
0.06117 
0.16244 
0.09825 
0.27491 
0.17360 
0.17485 
0.16377 
0.11504 
0.11948 
0.13310 
0.14270 
0.19272 
0.10027 
0.18424 
0.19179 
0.06603 
0.11445 
0.16641 
0.10614 
0.23388 
0.14990 
0.20603 
0.11222 
0.25392 
0.16783 
0.18228 
0.32723 
0.33654 
0.25199 
0.13333 
0.12217 
0.10282 
0.08130 
0.12212 
0.07104 
0.18244 
0.27343 
0.05594 
0.11713 
0.10371 
0.20097 
0.23701 
0.26997 
0.12901 
0.23913 
0.06635 
0.12637 
0.20036 
0.17687 
0.12813 
0.12396 
0.13875 
0.13609 
0.16740 
0.09433 
0.15881 
0.17222 
0.15123 
0.08224 
0.22404 
0.12185 
0.11204 
0.23884 
0.10996 
0.17290 
0.19950 
0.11470 
0.16166 
0.08955 
0.12703 
0.08841 
0.09282 
0.19941 
0.24771 
0.08876 
0.07987 
0.14815 
0.06410 
0.17343 
0.15687 
0.14026 
0.11295 
0.32075 
0.15055 
0.14339 
0.04048 
0.20924 
0.07086 
0.10723 
0.18460 
0.20829 
0.13530 
0.28306 
0.09307 
0.17694 
0.07370 
0.20794 
0.09830 
0.08505 
0.10462 
0.10033 
0.22421 
0.19519 
0.13869 
0.05898 
0.05288 
0.08353 
0.27710 
0.08591 
0.10364 
0.08882 
0.19941 
0.08372 
0.14597 
0.08262 
0.12573 
0.09089 
0.13936 
0.23482 
0.19054 
0.16751 
0.19915 
0.09410 
0.05216 
0.07477 
0.13225 
0.10923 
0.20044 
0.19539 
0.19070 
0.03952 
0.06751 
0.20127 
0.18251 
0.07950 
0.08451 
0.18223 
0.18751 
0.18728 
0.08638 
0.18093 
0.16746 
0.11303 
0.07068 
0.11227 
0.14957 
0.21538 
0.04980 
0.12648 
0.12551 
0.15033 
0.20665 
0.23235 
0.18003 
0.10633 
0.13239 
0.08035 
0.24235 
0.14647 
0.14864 
0.23652 
0.10553 
0.12417 
0.10897 
0.06921 
0.11964 
0.09686 
0.18980 
0.16339 
0.09619 
0.18210 
0.21704 
0.12173 
0.03244 
0.07590 
0.29183 
0.14479 
0.15108 
0.15007 
0.20537 
0.16336 
0.15354 
0.05949 
0.31270 
0.09548 
0.07070 
0.11050 
0.28227 
0.20908 
0.16517 
0.12821 
0.15342 
0.11893 
0.14735 
0.19237 
0.06972 
0.18671 
0.24327 
0.22854 
0.17975 
0.13403 
0.08715 
0.09607 
0.23420 
0.21825 
0.12821 
0.22772 
0.15964 
0.09474 
0.10044 
0.10953 
0.17614 
0.16396 
0.18012 
0.06024 
0.15735 
0.16239 
0.14951 
0.07972 
0.09203 
0.17898 
0.13076 
0.09852 
0.14329 
0.13225 
0.22220 
0.12163 
0.20315 
0.23639 
0.12294 
0.15378 
0.09312 
0.06428 
0.11715 
0.18906 
0.20768 
0.09229 
0.12461 
0.10858 
0.19445 
0.09979 
0.13111 
0.09449 
0.12668 
0.09871 
0.19776 
0.17522 
0.12659 
0.22542 
0.17799 
0.21285 
0.12679 
0.18023 
0.18789 
0.16227 
0.15638 
0.10583 
0.10496 
0.18207 
0.12541 
0.11826 
0.14856 
0.17306 
0.18617 
0.11486 
0.10401 
0.20938 
0.04840 
0.11015 
0.12753 
0.18058 
0.06279 
0.14504 
0.17833 
0.19163 
0.06865 
0.09909 
0.07046 
0.10709 
0.13587 
0.10682 
0.16299 
0.09682 
0.14756 
0.11319 
0.15373 
0.17832 
0.10544 
0.15996 
0.09071 
0.09735 
0.08564 
0.08709 
0.12919 
0.15970 
0.12012 
0.07692 
0.15765 
0.24952 
0.19411 
0.21090 
0.20062 
0.17790 
0.18969 
0.17165 
0.17825 
0.03035 
0.09563 
0.26469 
0.12843 
0.12502 
0.19838 
0.17933 
0.15080 
0.17301 
0.14030 
0.19761 
0.11739 
0.13469 
0.11786 
0.18223 
0.10328 
0.09187 
0.09157 
0.19575 
0.09079 
0.20026 
0.15070 
0.18464 
0.12594 
0.14106 
0.17554 

 VECTORS Umean float 
0.07600 0.07650 -0.05900 
0.05650 0.10850 -0.06200 
0.05650 0.08350 0.05050 
0.06500 0.07150 -0.15100 
-0.01800 0.15400 0.00650 
-0.00550 0.12400 -0.10200 
0.05750 0.09050 -0.03650 
0.02900 0.09500 -0.02900 
-0.01600 0.04400 -0.02500 
0.07600 0.03200 -0.10000 
-0.00550 0.06650 -0.11950 
-0.01200 0.04250 0.00700 
0.09350 0.07600 -0.21100 
0.04500 0.06750 -0.04450 
0.01950 0.12000 -0.20250 
-0.00050 0.08400 -0.14150 
0.01900 0.01450 -0.04950 
-0.01050 0.03600 -0.04300 
0.07350 0.02650 -0.04450 
0.00250 0.09000 -0.10050 
0.03700 0.09150 -0.06600 
0.01650 0.06000 -0.04050 
0.01250 0.13700 -0.13000 
0.03100 0.01600 -0.01450 
0.10350 0.12850 -0.20550 
-0.03000 0.05150 0.04100 
-0.03000 0.05300 -0.17900 
-0.05450 0.15350 -0.02650 
0.13200 0.09850 -0.19000 
0.02400 0.11100 -0.24900 
0.07550 0.10750 -0.11100 
0.03350 0.10750 -0.02850 
0.15300 0.10450 -0.24200 
0.07300 0.13600 -0.19300 
0.08650 0.02200 -0.05750 
0.03450 0.07650 -0.04300 
0.03300 0.08550 -0.22250 
0.02750 0.07400 -0.15950 
0.10900 0.01750 -0.10350 
-0.04250 0.06300 0.04250 
0.07000 0.01400 -0.11550 
0.04950 0.05850 -0.15900 
-0.00450 0.08850 -0.10500 
-0.04350 0.07950 0.04500 
0.09750 0.02350 -0.17000 
0.06600 0.03400 -0.07900 
0.05950 0.05700 -0.09200 
0.06800 0.14250 -0.22150 
0.12200 0.06650 -0.18800 
0.06750 0.02800 -0.04550 
0.08250 0.01300 -0.05050 
0.02050 0.11850 -0.14350 
0.13700 0.11200 -0.08950 
0.06750 0.15000 -0.10800 
0.02300 0.13100 -0.02400 
0.09550 0.01500 -0.11000 
-0.03350 0.08550 0.00700 
0.01850 0.02600 -0.14100 
0.10100 0.07800 -0.26200 
0.07750 0.05900 -0.07050 
0.03400 0.14200 -0.16850 
0.08650 0.01200 -0.06850 
0.08800 -0.01100 -0.09800 
0.04450 0.09150 -0.08000 
0.11900 0.11600 -0.34200 
0.05700 0.13600 -0.08800 
-0.07050 0.06700 -0.00450 
-0.00550 0.02450 -0.11300 
0.00600 0.09000 -0.07100 
0.02000 0.10500 -0.03900 
-0.01900 0.06950 -0.05800 
0.01600 0.18450 -0.16450 
-0.03700 0.06400 0.00500 
0.15100 0.07200 -0.23350 
0.06300 0.16000 -0.12600 
0.00350 0.07250 -0.06000 
0.06400 0.13000 -0.04400 
0.13200 0.12100 -0.06050 
0.07700 0.02700 -0.16950 
-0.03950 0.06400 0.11400 
0.00650 0.01900 -0.03350 
0.08150 0.06600 -0.10050 
0.05900 -0.00400 -0.07650 
-0.02550 0.08700 -0.10100 
-0.02750 0.05900 0.04150 
0.01900 0.03250 -0.08700 
-0.00900 0.03350 -0.06950 
0.03950 0.08650 -0.13650 
-0.01050 0.08000 -0.07450 
0.11400 0.12650 -0.10000 
0.00150 0.09600 -0.12600 
-0.02350 0.13150 -0.10100 
0.10200 0.06250 -0.14200 
0.06200 -0.03250 -0.06300 
0.09100 0.07900 -0.11250 
0.05950 0.04400 -0.09850 
-0.00000 0.06250 -0.10300 
0.16050 0.05950 -0.02550 
0.05700 0.03200 -0.07300 
0.09200 0.00250 -0.02250 
0.01550 0.08050 -0.04800 
0.01500 0.11300 -0.03150 
0.09050 0.09350 -0.19050 
0.00850 0.04500 -0.03600 
0.08500 0.10150 -0.14150 
-0.02650 0.08350 -0.19850 
0.09850 0.05700 -0.15000 
-0.05200 0.11100 -0.02050 
0.05050 0.08000 -0.35650 
-0.01250 0.07750 -0.02350 
0.13100 0.07800 -0.13400 
0.05350 0.07100 -0.03300 
0.08050 0.01350 -0.07400 
0.04000 0.11050 -0.03550 
0.01450 0.16100 -0.13600 
-0.00250 0.12150 0.01900 
0.13250 0.07950 -0.28000 
0.06100 0.06250 -0.03850 
0.05900 0.04950 -0.07550 
-0.03150 0.03650 0.04550 
0.09300 0.08350 -0.15500 
0.03000 0.03650 -0.00700 
0.02250 -0.00850 -0.08400 
0.01550 0.03850 -0.10400 
0.07300 0.06850 -0.11850 
0.00800 0.17850 -0.03150 
-0.03950 0.09750 -0.01750 
-0.03350 0.05000 -0.04750 
-0.02150 0.02300 -0.05450 
0.10600 0.11500 -0.30300 
0.10350 0.04200 -0.11600 
-0.03600 0.07400 0.10100 
0.15200 0.12350 -0.14150 
0.11100 0.01150 -0.07700 
0.00100 0.09900 0.03400 
-0.01100 0.04600 -0.11150 
-0.00800 0.03400 0.01650 
0.16750 0.02550 -0.18600 
0.00350 0.09800 0.00100 
0.05850 -0.06500 -0.00100 
0.12650 0.03450 -0.08250 
0.08250 0.11850 -0.20550 
0.11250 0.05150 -0.13200 
-0.05950 0.07400 -0.05600 
0.07700 0.02450 -0.12300 
0.01300 0.06400 -0.01850 
0.09550 0.05550 -0.17650 
0.06750 0.07400 -0.14150 
0.01850 0.08450 -0.08650 
0.14600 0.12500 -0.05400 
0.07150 0.09600 0.07150 
0.09850 0.08400 -0.12850 
0.06500 0.07000 -0.01850 
0.10300 0.01200 -0.09100 
0.05350 0.13850 -0.09900 
0.09600 0.14500 0.01950 
0.10350 0.02250 -0.00900 
-0.00550 0.07000 0.05550 
0.08750 0.13650 -0.09850 
0.08950 -0.01950 -0.04600 
-0.00300 0.09650 -0.10750 
0.13500 0.09800 0.02700 
0.12200 0.08250 -0.05700 
0.09000 -0.01650 -0.04050 
0.07350 0.03750 -0.04500 
-0.03100 0.03150 -0.04350 
0.08700 0.07000 -0.00500 
0.05250 0.02500 0.01900 
0.06400 0.11950 -0.08950 
0.07050 0.02550 -0.06350 
0.11800 0.11700 -0.21900 
0.14250 0.01800 -0.09750 
0.13900 0.09100 -0.05450 
0.08800 0.11500 -0.07650 
0.08300 0.01350 -0.07850 
-0.01700 0.10250 -0.05900 
0.03800 0.00400 -0.12750 
0.07950 0.08100 -0.08650 
-0.00100 0.15000 -0.12100 
0.07850 0.06150 0.01050 
0.02950 0.16700 -0.07200 
0.09050 0.11050 -0.12800 
0.06350 0.01800 0.00200 
0.05350 0.04100 -0.09250 
0.12650 0.06350 -0.08750 
0.03350 0.10000 -0.01200 
0.13300 0.13300 -0.13900 
0.03950 0.13550 -0.05050 
0.09100 0.07600 -0.16850 
0.08450 0.07000 -0.02350 
0.18950 0.01850 -0.16800 
0.12800 0.03850 -0.10150 
0.11300 0.12300 -0.07300 
0.20000 0.07950 -0.24650 
0.14850 0.09700 -0.28600 
0.13450 0.09550 -0.19050 
0.03800 0.07700 -0.10200 
0.02350 0.06050 -0.10350 
0.00100 0.10250 0.00800 
-0.04300 0.06900 -0.00000 
0.01700 0.10500 -0.06000 
0.05850 0.03200 -0.02450 
0.16200 0.04700 -0.06950 
0.19800 0.16050 -0.09900 
-0.01950 0.04300 0.03000 
0.07450 0.08700 0.02450 
0.07500 0.00950 -0.07100 
0.14100 0.07500 -0.12200 
0.11650 0.03450 -0.20350 
0.10800 0.15850 -0.19000 
0.08550 0.08700 -0.04200 
0.19300 0.12850 -0.05850 
0.02000 0.06050 -0.01850 
0.04350 0.10350 -0.05800 
0.09350 0.02450 -0.17550 
0.06950 0.03650 -0.15850 
0.07200 0.04800 -0.09450 
0.03600 0.11700 -0.01950 
0.04950 0.04900 -0.12000 
0.06100 0.11200 -0.04750 
0.06700 0.05150 -0.14450 
0.03750 0.00300 -0.08650 
0.01450 0.14900 -0.05300 
0.04250 0.11950 -0.11650 
0.03550 -0.00050 -0.14700 
0.06550 0.04900 -0.00850 
0.09150 -0.00150 -0.20450 
0.02850 0.08200 -0.08550 
0.05650 0.07300 -0.06350 
0.14950 0.08450 -0.16600 
0.04400 0.08750 -0.05000 
0.08500 0.11300 -0.09950 
0.09150 0.14500 -0.10200 
0.05150 0.02650 -0.09900 
0.11050 0.07000 -0.09500 
-0.05850 0.05200 0.04350 
0.00050 0.05500 -0.11450 
0.02650 0.08300 -0.01500 
0.03050 0.08600 -0.01700 
0.08950 0.05650 -0.16900 
0.06650 0.07200 -0.22750 
0.03750 0.08000 -0.00850 
0.04750 0.06050 -0.02150 
0.06900 0.12750 -0.03050 
-0.00150 0.03450 -0.05400 
0.12350 -0.06800 -0.10100 
0.07250 0.12050 -0.06950 
-0.00950 0.13300 -0.04350 
0.01250 0.10650 -0.03550 
0.04000 0.22100 -0.22900 
0.01350 0.12650 -0.08050 
0.10650 0.00150 -0.09600 
0.03850 0.00750 -0.01000 
0.05200 0.14750 -0.13900 
0.00700 0.07050 -0.00150 
0.05200 0.03500 -0.08700 
0.10750 0.15000 0.00450 
0.07400 -0.01650 -0.19400 
0.03750 0.00050 -0.13000 
0.15700 0.00350 -0.23550 
0.02100 0.08950 -0.01450 
0.05950 0.02950 -0.16400 
-0.01500 0.02800 -0.06650 
0.02950 0.11750 -0.16900 
-0.05350 0.05200 0.06400 
0.07100 0.04650 -0.00550 
0.04200 -0.09500 -0.01250 
-0.01550 0.08500 -0.05100 
0.10250 0.14050 -0.14150 
0.02050 0.06750 -0.18200 
0.10500 0.01700 -0.08900 
0.02200 -0.01850 -0.05150 
0.02400 0.04450 -0.01550 
0.04350 0.02300 -0.06750 
0.01100 0.06350 -0.26950 
0.04500 0.05150 -0.05200 
0.07450 0.00250 -0.07200 
0.05800 0.05650 -0.03650 
0.11500 0.04350 -0.15700 
-0.07650 0.03400 -0.00100 
0.03950 0.13800 -0.02650 
0.02700 0.07750 -0.00950 
0.08900 0.05200 -0.07200 
-0.02250 0.07350 -0.04850 
0.08000 0.09050 0.06950 
0.09150 0.09350 -0.19500 
0.08350 0.12600 -0.11600 
-0.02350 0.10900 -0.12500 
0.04550 0.10950 -0.16000 
0.07700 0.00800 -0.05350 
0.03300 0.03450 -0.02100 
0.00150 0.06150 -0.04250 
0.03900 0.12300 -0.02900 
0.04900 0.06700 0.07100 
0.07950 0.01350 -0.18350 
0.08600 0.09500 -0.14750 
0.08600 0.01550 -0.16950 
0.02400 -0.01900 -0.02500 
-0.04000 0.04600 0.02900 
0.02600 0.03200 -0.19700 
-0.01400 0.09200 -0.15700 
-0.02300 0.03700 0.06650 
0.07600 0.03200 -0.01850 
0.14200 0.08200 -0.07950 
0.12900 0.03500 -0.13150 
0.13800 0.07000 -0.10550 
0.00750 0.06700 -0.05400 
0.17550 0.04400 0.00050 
0.03800 0.13950 -0.08450 
0.09550 0.04300 -0.04250 
-0.03400 0.01550 0.06000 
-0.04200 0.10000 0.02900 
0.08150 -0.03300 -0.12100 
0.07150 0.11350 -0.16850 
-0.01250 0.04800 0.00450 
0.01900 0.02250 -0.12300 
-0.03250 0.12100 -0.00750 
0.13100 0.03750 -0.06350 
0.07350 0.18600 -0.05200 
0.02900 0.14650 -0.17800 
0.03800 0.06250 -0.16450 
0.05550 -0.00600 -0.09050 
0.04200 0.03850 -0.11950 
0.04350 0.05950 0.03200 
0.04250 0.10850 -0.21250 
0.05300 0.13500 0.02050 
0.00650 -0.00000 -0.14850 
0.10250 0.02650 -0.21150 
0.08700 0.04650 -0.03750 
-0.02700 0.10900 0.05300 
0.01750 0.06900 -0.08250 
-0.01400 -0.02850 -0.06150 
0.08000 0.03450 -0.08200 
-0.00750 0.08200 0.05100 
0.10500 0.15650 -0.02250 
0.12400 0.10450 -0.02000 
0.09600 0.00550 0.00250 
0.14550 -0.00050 -0.10950 
0.13700 0.04750 -0.16150 
0.10800 -0.05100 -0.02350 
-0.00450 0.03000 0.01150 
-0.01800 0.06900 0.02600 
0.05200 0.15300 -0.24300 
0.05700 0.03650 -0.12800 
0.12850 0.05150 -0.06050 
-0.02000 0.11100 0.09900 
0.09150 0.18000 -0.03750 
0.04500 0.09700 -0.12350 
0.03550 0.06800 -0.13300 
-0.02100 0.05250 0.01850 
0.00750 0.10200 -0.29550 
0.00150 0.09200 -0.02550 
-0.00250 0.06550 -0.02650 
0.04950 0.09200 0.03600 
0.11950 -0.04050 -0.25250 
0.12450 0.06100 -0.15650 
0.09900 0.12300 -0.04850 
0.05250 0.10550 -0.05050 
0.08600 -0.00350 -0.12700 
0.02750 0.07850 0.08500 
0.11950 0.08550 -0.01100 