# vtk DataFile Version 2.0 
Xm, Ym, Zm, Uvecs, timestep 10075 
ASCII 
 
DATASET POLYDATA POINTS 522 float 
 -8.877   2.769 -73.701 
 -7.966  -3.113 -71.554 
 -1.219  -2.203 -71.442 
  1.555   2.765 -69.978 
  2.700   3.503 -67.732 
  3.609   3.386 -70.051 
  5.799   3.938 -70.910 
  9.422   1.985 -71.019 
  7.952   6.992 -72.040 
 -1.947  -0.011 -70.588 
  9.588  -2.019 -71.129 
 14.607  -0.221 -71.290 
 -5.809   6.440 -68.666 
  4.104   4.155 -67.941 
  3.458  -2.273 -68.666 
  8.654   0.869 -69.929 
-14.441   8.458 -76.923 
  8.278   0.178 -69.473 
  8.749   7.590 -69.698 
  6.329  -1.098 -73.004 
 -1.933   4.608 -69.649 
  2.442   7.441 -71.322 
 -2.742   5.167 -67.418 
 -6.769  -8.834 -70.307 
  4.429   9.087 -68.084 
  4.399  11.449 -65.371 
  3.192  10.230 -64.698 
 13.150  -2.143 -74.918 
  2.748  -4.104 -74.102 
 -3.218  -0.623 -69.558 
 12.244   3.622 -73.379 
-10.704  -3.568 -70.395 
  8.030  -5.406 -67.477 
  4.588  -3.130 -68.093 
-10.078   3.030 -71.906 
 -3.931  10.670 -72.004 
  6.856  -0.313 -67.070 
 -9.880   6.090 -66.847 
-13.997  -6.920 -70.615 
 -3.140  11.801 -66.132 
 -0.546 -12.346 -73.250 
 -3.598  -1.663 -70.203 
 -2.320  10.413 -71.011 
-10.607   3.150 -71.869 
  4.348   8.010 -65.507 
  0.608  -2.207 -73.388 
-10.154  -4.933 -69.454 
 -0.214  11.298 -64.828 
 -6.220   9.194 -74.661 
 -4.995   6.701 -69.791 
 -4.910  -2.157 -67.114 
  8.531  10.509 -67.873 
  3.875   9.994 -72.737 
  8.156   7.024 -66.648 
  5.885   8.235 -70.660 
  0.593   0.647 -66.601 
 -1.753  11.431 -69.204 
-10.104 -10.002 -69.611 
  8.840  -0.180 -70.234 
 -7.706   6.455 -71.746 
  4.114  -7.866 -66.905 
 12.001  -2.757 -69.177 
  2.146   7.027 -74.023 
 13.544   4.860 -74.182 
 14.541   1.115 -71.415 
 -7.492  -3.842 -77.737 
 -8.209  -8.667 -70.351 
 -6.259   6.353 -68.524 
 -4.408  -1.226 -71.739 
-15.541   7.203 -74.374 
  9.398   3.061 -68.292 
  7.329   0.872 -67.341 
 -8.107  -5.237 -67.863 
 -7.805   1.970 -66.785 
  1.289  -9.631 -67.505 
 -1.635  -4.174 -73.058 
 -8.035  -0.171 -66.253 
  9.934   4.165 -65.678 
 -2.122  -5.012 -68.263 
 -8.314   2.978 -68.357 
-14.136  -0.323 -68.954 
  4.852  -0.345 -66.769 
 12.006   6.394 -67.897 
-12.043  -1.570 -73.938 
 -1.650   8.277 -72.962 
 -5.373   8.832 -63.743 
 -7.136  -0.502 -67.013 
-13.688   7.934 -70.769 
 -2.923   7.748 -65.765 
-15.337  -3.698 -71.939 
 -6.671   4.719 -69.988 
 -4.473   2.406 -67.745 
 -3.823   3.083 -69.045 
  5.253  -3.096 -70.846 
  1.676   3.344 -65.998 
 -4.956   2.448 -63.781 
  5.091  11.137 -72.137 
 -0.545   3.039 -67.941 
 12.001  -0.234 -73.409 
 -1.229   9.707 -63.477 
  2.930  11.128 -66.702 
-11.331  -0.319 -65.927 
  6.108   2.733 -73.843 
 -0.793  -6.880 -64.029 
  4.194   2.957 -67.985 
-11.618  -4.527 -75.364 
 -7.852 -11.936 -71.659 
 -7.121   5.942 -61.921 
 -1.600  10.119 -74.507 
 -8.732   9.685 -64.005 
 -2.091  -7.103 -68.401 
 -3.208   5.906 -67.412 
 -5.523  -5.029 -66.493 
  9.323  -3.869 -66.841 
  1.284  -2.757 -73.543 
  7.143   9.207 -73.394 
 -0.578  -1.049 -64.493 
 -7.088  -4.575 -68.930 
  6.373   5.649 -65.894 
 10.770  12.739 -69.502 
  1.964   9.015 -68.624 
  6.909   7.658 -63.937 
  3.545 -12.294 -67.394 
-11.464   1.250 -72.573 
 -4.886  -7.050 -77.105 
 -0.573   5.662 -60.423 
 -2.966  -1.084 -64.747 
 17.915   3.390 -71.066 
 -5.088 -10.310 -71.952 
 -2.813   4.801 -66.033 
 -2.947  -5.214 -67.513 
 -2.249   8.404 -66.044 
  5.770  -7.920 -66.727 
 -7.615   2.555 -71.476 
 -8.413   8.162 -64.328 
 -5.928  -1.724 -75.272 
 -1.582   7.494 -61.638 
  2.877   8.460 -76.579 
  4.612   3.947 -64.780 
  1.817  -2.561 -72.862 
-15.620   1.458 -72.712 
 -7.281   1.325 -65.547 
  6.474  12.073 -73.322 
  2.144  -5.995 -65.622 
 -7.446  12.558 -67.447 
  8.469 -12.692 -66.880 
-12.037  -3.444 -64.422 
 -1.563  -6.207 -64.039 
  7.956 -12.072 -69.657 
 -2.905  -8.315 -69.335 
 -2.515   5.341 -74.081 
  2.478 -11.186 -68.201 
 -5.985   0.421 -66.010 
-11.975   3.443 -62.407 
  9.329   5.420 -67.812 
 -8.039   5.630 -69.870 
 -5.620  -5.713 -69.635 
  1.406   1.804 -71.294 
-12.875   7.181 -66.626 
  0.828   7.969 -66.538 
  8.998  -1.974 -65.948 
 -7.666   8.913 -63.680 
-11.880   1.300 -67.471 
 11.206  -2.875 -72.699 
  6.840  -7.880 -65.015 
 -0.845   2.329 -64.317 
 -6.597  12.663 -64.254 
-10.197  -5.175 -72.506 
-12.283   2.522 -63.627 
  9.101 -12.127 -68.822 
 -4.035  11.875 -70.170 
 14.139  -1.476 -71.858 
-14.953  -8.465 -73.646 
 -6.167  11.329 -72.909 
 16.892  -9.837 -68.924 
 -4.514  -8.593 -67.206 
 -7.968  10.286 -70.473 
 -5.853  -6.950 -69.893 
  6.143   4.944 -71.488 
  0.833   0.740 -63.595 
  9.191   3.492 -62.447 
 -3.003   3.415 -73.176 
-11.033  -0.823 -75.939 
 10.655  -2.423 -67.305 
  8.068  -1.773 -72.835 
  5.361   0.629 -64.622 
 10.625 -10.947 -71.551 
 -6.258   1.759 -62.686 
  1.298 -11.640 -68.629 
 -8.622  13.031 -67.500 
 11.459  -6.416 -70.986 
  6.765  -7.351 -69.398 
  4.190  12.140 -73.303 
 -2.336  -3.229 -70.743 
 -6.287  -1.568 -62.105 
  9.573   6.968 -64.129 
 -3.753  -7.935 -73.773 
  0.926  -2.752 -65.671 
-12.459   9.962 -70.998 
 11.076  -0.054 -63.318 
-13.717   6.065 -67.826 
 -4.256   4.199 -66.469 
 15.859   6.266 -68.192 
 -1.438  -8.645 -71.987 
-14.279   9.982 -67.708 
 -6.065   8.972 -63.841 
  8.090  -3.883 -70.542 
 -1.017 -10.085 -66.007 
-14.333 -10.060 -73.686 
 -7.395  -7.837 -69.506 
  8.024  -8.672 -66.051 
-13.021  -3.166 -68.513 
 -9.662   3.271 -75.350 
  6.255  -9.341 -69.975 
  7.527   9.112 -64.147 
 -5.160  -1.235 -69.817 
 10.241 -10.163 -67.251 
 12.314   6.528 -67.075 
  0.786  -3.689 -75.934 
  8.980  10.161 -73.865 
  2.526  -4.319 -64.411 
  0.672 -12.477 -67.253 
  6.874  -1.176 -67.678 
  0.316  -8.953 -77.417 
 -8.418  10.768 -69.434 
 -6.130  -6.934 -75.356 
  8.493  -8.123 -67.834 
 15.785   9.047 -69.832 
 -5.184  -1.376 -75.277 
  7.963  -9.257 -64.644 
 15.650  -2.926 -73.119 
 -5.656  -8.657 -70.148 
-13.679   3.262 -74.316 
  2.970  11.988 -65.893 
 11.060   0.144 -66.040 
 12.382  -3.430 -62.341 
  4.271   0.905 -67.553 
-13.249  -0.019 -70.597 
 12.734  10.656 -67.853 
  3.203  -9.079 -65.818 
  3.383 -10.444 -72.588 
 15.412   7.472 -64.873 
-15.832 -10.702 -75.657 
-10.631   7.297 -64.078 
-13.410  12.646 -66.814 
 -9.845  -5.540 -74.379 
 12.006  10.284 -65.073 
  5.657 -10.797 -67.331 
-12.102  10.800 -65.403 
  8.363  -6.303 -65.507 
 -5.741  -9.328 -71.886 
  5.357  -7.268 -64.183 
 -5.136   9.988 -69.188 
 12.430   9.338 -66.277 
 17.028  -6.607 -75.532 
  6.761  -7.721 -63.963 
 -6.760  -5.407 -72.346 
-12.354 -10.276 -76.365 
 14.616   1.833 -66.916 
  1.261  -5.633 -70.270 
-10.581  -8.816 -73.946 
 -9.090   8.973 -74.906 
-10.967   0.752 -73.301 
 -4.617   6.838 -63.567 
 13.043   9.385 -72.056 
  5.907 -10.378 -65.276 
 -0.257 -11.488 -73.665 
-12.781  -3.960 -64.163 
 12.166   5.161 -63.637 
 11.508  10.090 -70.046 
  2.365  -2.780 -66.311 
-15.461  -1.736 -74.388 
 14.525  10.671 -68.808 
-13.654  -7.918 -72.344 
 -8.421  12.579 -64.549 
 -4.980   8.584 -61.777 
 13.399  -2.071 -66.282 
 -3.659  -6.890 -66.302 
  9.206  -0.639 -62.166 
 -3.095   5.704 -72.053 
-12.954   2.351 -77.387 
-11.110  10.177 -69.567 
 -9.187   2.278 -60.058 
  0.120   0.837 -59.096 
  9.213  -8.527 -66.573 
 11.218   6.632 -76.097 
  0.195  10.848 -72.777 
 16.902  11.519 -68.572 
 -1.065   9.056 -73.388 
 -8.875  -1.226 -66.405 
 -9.413   8.394 -64.531 
 -1.853  -9.604 -64.514 
 -4.903  -9.194 -74.212 
 -5.675  -4.554 -66.733 
 16.371  10.800 -67.176 
  3.133 -10.690 -61.641 
 -4.967   2.506 -62.407 
  9.124  -1.873 -77.594 
 -5.114   0.861 -62.395 
-12.005  12.257 -66.155 
 -7.406  -7.909 -65.215 
 -8.092  11.980 -67.867 
  6.923  -5.936 -73.343 
 -1.281   9.245 -68.541 
 14.643  -3.942 -74.213 
  4.555   1.440 -63.380 
  6.383 -12.679 -69.948 
 -5.495  11.237 -70.412 
  9.392   4.164 -63.672 
  3.011  -1.247 -76.968 
 15.006   9.254 -65.280 
 14.060  -4.189 -72.793 
-10.935  -9.402 -68.454 
 12.128  -0.427 -71.200 
 -4.537   1.986 -73.535 
 15.662   5.487 -71.950 
 15.430  -5.216 -72.412 
  1.019  -7.593 -65.639 
  3.912  -3.002 -68.364 
 -9.957   7.284 -63.528 
  1.074 -11.349 -66.445 
 -4.892   4.432 -73.304 
  1.257  10.474 -70.942 
 -5.125  -1.969 -69.672 
 -9.713   9.979 -65.532 
 -2.118   3.240 -65.316 
  6.818  -2.205 -72.025 
 -4.922  10.677 -62.901 
  0.206   4.753 -66.242 
  0.424   8.869 -73.144 
  6.012   7.103 -75.418 
  1.452  11.741 -70.087 
 13.538   1.824 -73.365 
 -0.238 -11.508 -68.826 
 12.609   3.015 -68.791 
 -3.462  -0.391 -73.938 
  9.043  -1.761 -71.514 
 -8.421   7.760 -67.223 
 17.654   4.295 -71.648 
  2.181   5.436 -70.246 
 -0.120  -5.563 -62.829 
-12.895  12.137 -72.993 
 -0.016   4.723 -74.642 
  2.743   5.598 -65.047 
 -3.279   4.030 -64.305 
 17.074  -3.712 -66.570 
 -0.118  -3.806 -60.683 
 -9.832  11.562 -68.001 
 -7.630  11.553 -75.707 
-13.906  10.421 -74.178 
 -2.391  -7.984 -74.344 
 -6.687  -8.432 -74.686 
  2.149  11.520 -73.380 
 -2.800   0.334 -64.819 
 -7.946   0.133 -61.715 
  7.846  -6.694 -62.852 
 -4.088   9.162 -62.154 
 -1.765  11.884 -61.593 
 -8.555  -8.412 -62.939 
 -1.367  -4.873 -66.157 
 -9.152  -5.667 -63.206 
 -4.442  10.422 -75.593 
 -9.550  10.515 -76.538 
  4.551   0.036 -61.328 
 -7.535  12.329 -71.764 
  5.543  -4.246 -64.573 
  5.534  -2.465 -69.989 
  8.878 -11.509 -65.584 
  1.090   5.849 -61.650 
-15.679   5.965 -70.891 
 12.802 -12.932 -64.254 
 10.901  -4.111 -65.298 
 -4.861   1.123 -74.864 
 -6.755 -12.483 -65.953 
 -2.780  -3.309 -73.821 
 -4.702  -9.838 -68.989 
 12.349  -2.959 -71.879 
 12.775   3.797 -65.512 
-10.145  -9.605 -61.892 
-11.233   6.224 -66.291 
-12.248  -9.316 -70.183 
  8.781 -11.531 -64.246 
  8.561   6.849 -67.790 
  4.979   4.095 -63.755 
-14.441   8.591 -72.232 
  4.486  -0.671 -62.584 
 15.869  11.075 -72.657 
 12.651  -7.107 -65.346 
-14.039  -2.282 -66.376 
 -4.632  11.631 -62.077 
-15.120  -5.965 -77.025 
 -3.194  -1.722 -62.950 
 -4.327  -2.416 -61.796 
  1.466  -6.871 -60.583 
  0.936  12.222 -61.944 
 -9.175   2.747 -63.449 
  7.777  -0.910 -60.478 
 -3.953   9.765 -67.537 
  2.763  -4.117 -60.355 
  7.965  10.586 -62.163 
  7.534   3.162 -60.187 
 17.935   8.435 -68.787 
 16.919  -0.976 -72.275 
-13.193   5.471 -63.737 
 -8.137   3.638 -60.767 
 17.270  -7.037 -66.287 
  9.197   4.906 -57.755 
-11.236  -0.417 -63.127 
 15.006  -9.995 -74.563 
 12.003   1.781 -60.613 
 10.803   8.727 -67.338 
  9.511  -8.501 -63.940 
 -9.212  -5.566 -60.855 
 12.991 -10.361 -65.186 
 -9.660   5.098 -75.782 
 10.255  11.271 -63.805 
 -6.796  -0.160 -64.157 
 -4.210  -2.502 -74.493 
 -6.356  -5.250 -65.828 
 -8.193  -9.314 -62.502 
 -1.125  -9.579 -62.159 
-13.763   7.868 -74.764 
 12.776 -12.306 -64.708 
 13.174   8.746 -63.334 
 -0.871   7.297 -73.519 
-11.648   2.534 -71.551 
-13.976  -4.180 -68.772 
-13.703  11.814 -67.718 
-11.265   0.633 -77.242 
 -1.319 -11.880 -66.349 
  7.330  -9.269 -71.191 
 -4.476 -12.819 -66.314 
 -9.099   5.484 -58.385 
  8.974 -12.029 -61.365 
 18.157   4.620 -68.960 
  4.894 -11.808 -66.088 
  1.969   0.321 -68.781 
 14.635  -4.106 -76.129 
 11.373 -11.340 -68.705 
 -7.617  -1.266 -60.977 
  3.758 -11.527 -72.272 
 -8.794  -6.905 -59.517 
  3.442 -11.549 -73.499 
  9.316  -4.896 -74.394 
-11.197  -5.236 -64.727 
 14.763  -4.930 -65.690 
 10.908  -8.623 -68.843 
  2.644 -11.178 -66.717 
  5.307  -1.578 -73.606 
 11.172   1.720 -66.788 
 16.152   9.471 -73.657 
 16.029 -11.887 -68.363 
  0.618  -1.855 -70.257 
 17.035  -4.918 -72.161 
 12.701  -5.750 -68.239 
 -1.875  11.579 -78.394 
 18.247 -11.212 -67.833 
 15.406   5.149 -65.495 
  5.242   3.051 -67.239 
 12.128   1.931 -64.219 
 14.548   3.042 -72.994 
 15.452  11.678 -73.697 
 -6.042  -1.801 -62.240 
  4.349   4.443 -69.397 
-13.972   4.816 -71.379 
-13.971   7.598 -75.495 
  6.530   3.737 -59.039 
 -4.200   7.063 -71.015 
  7.398  -2.694 -62.272 
  7.832   2.338 -63.681 
 -8.221  -9.065 -60.263 
 16.974   8.950 -71.912 
 -9.463   8.008 -64.403 
 -8.221   5.265 -67.733 
  8.389  -4.928 -74.406 
 -1.765  -6.930 -76.763 
 -5.251  -5.559 -58.688 
  8.236   9.474 -66.677 
  5.730   0.389 -66.017 
 -0.196  12.348 -66.020 
 11.213   5.499 -65.788 
 14.654  -1.054 -64.978 
 -6.411   2.912 -68.972 
  3.671   9.326 -72.713 
 -4.931  -1.523 -67.565 
 14.971   9.907 -73.026 
  4.753  -5.263 -65.392 
 -0.017  -5.402 -64.065 
 -2.002   4.947 -72.183 
  9.012  -8.565 -64.700 
-11.259   7.751 -68.940 
 -5.492  -2.826 -67.468 
 -6.990  -3.548 -67.752 
 16.203   1.984 -71.907 
  8.809   6.238 -65.216 
 -8.216  13.262 -67.712 
-15.943  -3.058 -72.614 
  7.799   8.449 -62.537 
 -6.179   0.200 -65.038 
  8.132 -11.215 -60.895 
 -0.827 -12.112 -70.419 
 -6.383   0.815 -71.531 
  7.389  10.868 -73.281 
  9.049   3.391 -70.340 
  5.974  -5.314 -75.348 
 11.948   4.985 -75.442 
  7.422   6.932 -67.403 
 12.026 -13.490 -71.251 
-13.681   5.880 -64.982 
  3.870  -4.572 -69.851 
-14.284  -8.357 -72.517 
 12.932 -12.860 -67.343 
  8.116   0.338 -61.823 
 -9.646   3.706 -69.930 
  1.550   5.039 -72.651 
 -2.288  -0.065 -68.296 
 -7.162 -10.723 -68.061 
 -6.334  -0.766 -67.971 
  0.756  -5.742 -70.595 
 10.151  -5.860 -70.595 
-11.294  10.829 -65.559 
 -2.636  -8.511 -67.995 

 VERTICES 522 1044 
1 0 
1 1 
1 2 
1 3 
1 4 
1 5 
1 6 
1 7 
1 8 
1 9 
1 10 
1 11 
1 12 
1 13 
1 14 
1 15 
1 16 
1 17 
1 18 
1 19 
1 20 
1 21 
1 22 
1 23 
1 24 
1 25 
1 26 
1 27 
1 28 
1 29 
1 30 
1 31 
1 32 
1 33 
1 34 
1 35 
1 36 
1 37 
1 38 
1 39 
1 40 
1 41 
1 42 
1 43 
1 44 
1 45 
1 46 
1 47 
1 48 
1 49 
1 50 
1 51 
1 52 
1 53 
1 54 
1 55 
1 56 
1 57 
1 58 
1 59 
1 60 
1 61 
1 62 
1 63 
1 64 
1 65 
1 66 
1 67 
1 68 
1 69 
1 70 
1 71 
1 72 
1 73 
1 74 
1 75 
1 76 
1 77 
1 78 
1 79 
1 80 
1 81 
1 82 
1 83 
1 84 
1 85 
1 86 
1 87 
1 88 
1 89 
1 90 
1 91 
1 92 
1 93 
1 94 
1 95 
1 96 
1 97 
1 98 
1 99 
1 100 
1 101 
1 102 
1 103 
1 104 
1 105 
1 106 
1 107 
1 108 
1 109 
1 110 
1 111 
1 112 
1 113 
1 114 
1 115 
1 116 
1 117 
1 118 
1 119 
1 120 
1 121 
1 122 
1 123 
1 124 
1 125 
1 126 
1 127 
1 128 
1 129 
1 130 
1 131 
1 132 
1 133 
1 134 
1 135 
1 136 
1 137 
1 138 
1 139 
1 140 
1 141 
1 142 
1 143 
1 144 
1 145 
1 146 
1 147 
1 148 
1 149 
1 150 
1 151 
1 152 
1 153 
1 154 
1 155 
1 156 
1 157 
1 158 
1 159 
1 160 
1 161 
1 162 
1 163 
1 164 
1 165 
1 166 
1 167 
1 168 
1 169 
1 170 
1 171 
1 172 
1 173 
1 174 
1 175 
1 176 
1 177 
1 178 
1 179 
1 180 
1 181 
1 182 
1 183 
1 184 
1 185 
1 186 
1 187 
1 188 
1 189 
1 190 
1 191 
1 192 
1 193 
1 194 
1 195 
1 196 
1 197 
1 198 
1 199 
1 200 
1 201 
1 202 
1 203 
1 204 
1 205 
1 206 
1 207 
1 208 
1 209 
1 210 
1 211 
1 212 
1 213 
1 214 
1 215 
1 216 
1 217 
1 218 
1 219 
1 220 
1 221 
1 222 
1 223 
1 224 
1 225 
1 226 
1 227 
1 228 
1 229 
1 230 
1 231 
1 232 
1 233 
1 234 
1 235 
1 236 
1 237 
1 238 
1 239 
1 240 
1 241 
1 242 
1 243 
1 244 
1 245 
1 246 
1 247 
1 248 
1 249 
1 250 
1 251 
1 252 
1 253 
1 254 
1 255 
1 256 
1 257 
1 258 
1 259 
1 260 
1 261 
1 262 
1 263 
1 264 
1 265 
1 266 
1 267 
1 268 
1 269 
1 270 
1 271 
1 272 
1 273 
1 274 
1 275 
1 276 
1 277 
1 278 
1 279 
1 280 
1 281 
1 282 
1 283 
1 284 
1 285 
1 286 
1 287 
1 288 
1 289 
1 290 
1 291 
1 292 
1 293 
1 294 
1 295 
1 296 
1 297 
1 298 
1 299 
1 300 
1 301 
1 302 
1 303 
1 304 
1 305 
1 306 
1 307 
1 308 
1 309 
1 310 
1 311 
1 312 
1 313 
1 314 
1 315 
1 316 
1 317 
1 318 
1 319 
1 320 
1 321 
1 322 
1 323 
1 324 
1 325 
1 326 
1 327 
1 328 
1 329 
1 330 
1 331 
1 332 
1 333 
1 334 
1 335 
1 336 
1 337 
1 338 
1 339 
1 340 
1 341 
1 342 
1 343 
1 344 
1 345 
1 346 
1 347 
1 348 
1 349 
1 350 
1 351 
1 352 
1 353 
1 354 
1 355 
1 356 
1 357 
1 358 
1 359 
1 360 
1 361 
1 362 
1 363 
1 364 
1 365 
1 366 
1 367 
1 368 
1 369 
1 370 
1 371 
1 372 
1 373 
1 374 
1 375 
1 376 
1 377 
1 378 
1 379 
1 380 
1 381 
1 382 
1 383 
1 384 
1 385 
1 386 
1 387 
1 388 
1 389 
1 390 
1 391 
1 392 
1 393 
1 394 
1 395 
1 396 
1 397 
1 398 
1 399 
1 400 
1 401 
1 402 
1 403 
1 404 
1 405 
1 406 
1 407 
1 408 
1 409 
1 410 
1 411 
1 412 
1 413 
1 414 
1 415 
1 416 
1 417 
1 418 
1 419 
1 420 
1 421 
1 422 
1 423 
1 424 
1 425 
1 426 
1 427 
1 428 
1 429 
1 430 
1 431 
1 432 
1 433 
1 434 
1 435 
1 436 
1 437 
1 438 
1 439 
1 440 
1 441 
1 442 
1 443 
1 444 
1 445 
1 446 
1 447 
1 448 
1 449 
1 450 
1 451 
1 452 
1 453 
1 454 
1 455 
1 456 
1 457 
1 458 
1 459 
1 460 
1 461 
1 462 
1 463 
1 464 
1 465 
1 466 
1 467 
1 468 
1 469 
1 470 
1 471 
1 472 
1 473 
1 474 
1 475 
1 476 
1 477 
1 478 
1 479 
1 480 
1 481 
1 482 
1 483 
1 484 
1 485 
1 486 
1 487 
1 488 
1 489 
1 490 
1 491 
1 492 
1 493 
1 494 
1 495 
1 496 
1 497 
1 498 
1 499 
1 500 
1 501 
1 502 
1 503 
1 504 
1 505 
1 506 
1 507 
1 508 
1 509 
1 510 
1 511 
1 512 
1 513 
1 514 
1 515 
1 516 
1 517 
1 518 
1 519 
1 520 
1 521 
POINT_DATA 522 
SCALARS MeanU double 1 
LOOKUP_TABLE default
0.07812 
0.10122 
0.15067 
0.13802 
0.15577 
0.16168 
0.13782 
0.15387 
0.09488 
0.12036 
0.09393 
0.06894 
0.10023 
0.16143 
0.13889 
0.15673 
0.02839 
0.17575 
0.08391 
0.09848 
0.09366 
0.07316 
0.11259 
0.14214 
0.13486 
0.18161 
0.14922 
0.07008 
0.10670 
0.08437 
0.09561 
0.10965 
0.10642 
0.18111 
0.08151 
0.10523 
0.20758 
0.15175 
0.13876 
0.15337 
0.13126 
0.11573 
0.12570 
0.06386 
0.17402 
0.09500 
0.11370 
0.10175 
0.07310 
0.13239 
0.12945 
0.07341 
0.07838 
0.11633 
0.11025 
0.17830 
0.19155 
0.19522 
0.21216 
0.09071 
0.18284 
0.08448 
0.09817 
0.07249 
0.08979 
0.06285 
0.16996 
0.11633 
0.16786 
0.07489 
0.15604 
0.17678 
0.08907 
0.17532 
0.14695 
0.08055 
0.10710 
0.16202 
0.15552 
0.09509 
0.13625 
0.15563 
0.04515 
0.05587 
0.08952 
0.12631 
0.13271 
0.06868 
0.16867 
0.07477 
0.14186 
0.09588 
0.07183 
0.16446 
0.14916 
0.10336 
0.18351 
0.14437 
0.04526 
0.13882 
0.14018 
0.21217 
0.15171 
0.14045 
0.18552 
0.00935 
0.08282 
0.10786 
0.11017 
0.13095 
0.15986 
0.14781 
0.09971 
0.06450 
0.08517 
0.12729 
0.16126 
0.06404 
0.11982 
0.13397 
0.14681 
0.13016 
0.20360 
0.10577 
0.07436 
0.14584 
0.12304 
0.06289 
0.15418 
0.14753 
0.13062 
0.19890 
0.17425 
0.03718 
0.12378 
0.07626 
0.18926 
0.10446 
0.20951 
0.09925 
0.13871 
0.12608 
0.11261 
0.21605 
0.11736 
0.12717 
0.14719 
0.12903 
0.09910 
0.21347 
0.08282 
0.24757 
0.14180 
0.16228 
0.17308 
0.13944 
0.13177 
0.10097 
0.04311 
0.13892 
0.20009 
0.11949 
0.14259 
0.03223 
0.07687 
0.18102 
0.11832 
0.14903 
0.06951 
0.09016 
0.11317 
0.04344 
0.18398 
0.09418 
0.04167 
0.16275 
0.10220 
0.16693 
0.05139 
0.20729 
0.19243 
0.12934 
0.05689 
0.09916 
0.09071 
0.13124 
0.04883 
0.09531 
0.16565 
0.10762 
0.10936 
0.18983 
0.15455 
0.09857 
0.06195 
0.10918 
0.14828 
0.16994 
0.06658 
0.19401 
0.02096 
0.11484 
0.06553 
0.11850 
0.04144 
0.11781 
0.19214 
0.11823 
0.15163 
0.14119 
0.10080 
0.16008 
0.04615 
0.14993 
0.15965 
0.12581 
0.13458 
0.07793 
0.04024 
0.15046 
0.18416 
0.14771 
0.17595 
0.08942 
0.10636 
0.05382 
0.20282 
0.09764 
0.07412 
0.11900 
0.06146 
0.11277 
0.09895 
0.14953 
0.10642 
0.12270 
0.14291 
0.08400 
0.06699 
0.16812 
0.23491 
0.14012 
0.15296 
0.13867 
0.04595 
0.08976 
0.10479 
0.15581 
0.05779 
0.08662 
0.17155 
0.16503 
0.08286 
0.08525 
0.07069 
0.08246 
0.14907 
0.18491 
0.06965 
0.15319 
0.10472 
0.07821 
0.09447 
0.12024 
0.10282 
0.12978 
0.12207 
0.14727 
0.20334 
0.10827 
0.16352 
0.17720 
0.04648 
0.08439 
0.13940 
0.18630 
0.10208 
0.20614 
0.22345 
0.04572 
0.05610 
0.02576 
0.13396 
0.13709 
0.17613 
0.12986 
0.10707 
0.09475 
0.10820 
0.08819 
0.08350 
0.11189 
0.11486 
0.15886 
0.09308 
0.20500 
0.20021 
0.04765 
0.17149 
0.05602 
0.13390 
0.09392 
0.04828 
0.19607 
0.07436 
0.18261 
0.10136 
0.11659 
0.16166 
0.12612 
0.06158 
0.05571 
0.14456 
0.09984 
0.09098 
0.11036 
0.07097 
0.22052 
0.14399 
0.10600 
0.23870 
0.06010 
0.08855 
0.13785 
0.06150 
0.19580 
0.11466 
0.12362 
0.19459 
0.10111 
0.04987 
0.09183 
0.05667 
0.16453 
0.08710 
0.09414 
0.10848 
0.08088 
0.06262 
0.23624 
0.13117 
0.06912 
0.13110 
0.18376 
0.14566 
0.08698 
0.10111 
0.10691 
0.06741 
0.05266 
0.12623 
0.05983 
0.13055 
0.13509 
0.14699 
0.06360 
0.20255 
0.09300 
0.13289 
0.14544 
0.14802 
0.14538 
0.05021 
0.19949 
0.10778 
0.18872 
0.18744 
0.14397 
0.20621 
0.05177 
0.13811 
0.07455 
0.07300 
0.12643 
0.08942 
0.13716 
0.02964 
0.13837 
0.09205 
0.13942 
0.12630 
0.13513 
0.11252 
0.18878 
0.04997 
0.16369 
0.11792 
0.10249 
0.15561 
0.17787 
0.14256 
0.07887 
0.09775 
0.18807 
0.15977 
0.19217 
0.20773 
0.07546 
0.15207 
0.10301 
0.23232 
0.08320 
0.04683 
0.11986 
0.20111 
0.11422 
0.11992 
0.10404 
0.04152 
0.17102 
0.08574 
0.14197 
0.23257 
0.10607 
0.06689 
0.15490 
0.17631 
0.06259 
0.17735 
0.19884 
0.19586 
0.06469 
0.11354 
0.18851 
0.09312 
0.09150 
0.10266 
0.02022 
0.05096 
0.18640 
0.13715 
0.20328 
0.11430 
0.11821 
0.06599 
0.15953 
0.15301 
0.08925 
0.07402 
0.10604 
0.28859 
0.17513 
0.14496 
0.11520 
0.18787 
0.07648 
0.09048 
0.15809 
0.12907 
0.09512 
0.13596 
0.10145 
0.19486 
0.06486 
0.07906 
0.08728 
0.14631 
0.13211 
0.13240 
0.17452 
0.11145 
0.11646 
0.10525 
0.15140 
0.05416 
0.06318 
0.19578 
0.09991 
0.18871 
0.13508 
0.15764 
0.08464 
0.10365 
0.16287 
0.07578 
0.09723 
0.23710 
0.07842 
0.14171 
0.13696 
0.09496 
0.06956 
0.13073 
0.08186 
0.09687 
0.06313 
0.17117 
0.17963 
0.11125 
0.12868 
0.07314 
0.13442 
0.09966 
0.07873 
0.14306 
0.13215 
0.14430 
0.09526 
0.13982 
0.15544 
0.13945 
0.05392 
0.13586 
0.13619 
0.05727 
0.11807 
0.12926 
0.11716 
0.09825 
0.18507 
0.10977 
0.07107 
0.21834 
0.09536 
0.10251 
0.12267 
0.10896 
0.15681 
0.17549 
0.10118 
0.07593 
0.17571 

 VECTORS Umean float 
0.03350 0.02750 -0.06500 
0.03300 0.07900 0.05400 
0.07750 0.12350 0.03800 
0.06150 0.12350 -0.00400 
0.01850 0.15350 -0.01900 
0.00850 0.14350 -0.07400 
0.02950 0.10600 -0.08300 
0.08350 0.07100 -0.10800 
-0.01250 0.03450 -0.08750 
0.03500 0.11350 -0.01950 
-0.02050 0.09100 -0.01100 
0.04250 0.02800 -0.04650 
0.00250 0.09050 -0.04300 
-0.00350 0.13750 -0.08450 
0.00650 0.11300 -0.08050 
0.07450 0.11850 -0.07050 
-0.02100 0.01300 -0.01400 
0.07200 0.13200 -0.09100 
0.01800 0.04500 -0.06850 
-0.01650 0.09550 -0.01750 
0.02950 0.08600 0.02250 
-0.01150 0.06050 -0.03950 
0.03400 0.09600 0.04800 
-0.00150 0.14050 0.02150 
0.01400 0.13350 -0.01300 
0.02900 0.17700 -0.02850 
0.02050 0.13250 -0.06550 
-0.03450 0.02300 -0.05650 
-0.00850 0.09250 0.05250 
0.05150 0.06450 0.01750 
0.01050 0.08050 -0.05050 
0.01250 0.07900 0.07500 
0.00800 0.05200 -0.09250 
0.05800 0.14450 -0.09250 
0.07500 0.02600 -0.01850 
-0.03300 0.09200 -0.03900 
0.01100 0.15600 -0.13650 
0.09900 0.11500 -0.00100 
0.08650 0.08650 -0.06550 
-0.01650 0.14700 -0.04050 
0.07150 0.11000 -0.00400 
0.03950 0.09500 -0.05300 
-0.04950 0.09750 -0.06200 
0.05500 0.02700 -0.01800 
0.08550 0.14200 -0.05300 
-0.01200 0.08050 0.04900 
0.03450 0.08850 -0.06250 
0.01900 0.09400 -0.03400 
-0.03500 0.02850 -0.05750 
0.04100 0.12200 -0.03100 
0.06900 0.10950 0.00250 
-0.06800 0.02700 -0.00600 
-0.03750 0.04450 -0.05250 
0.04050 0.10850 -0.01100 
-0.00800 0.07700 -0.07850 
0.11900 0.12300 0.05000 
-0.03300 0.14000 -0.12650 
0.09700 0.15450 -0.06950 
0.11300 0.16150 -0.07850 
0.06800 0.00800 -0.05950 
0.10650 0.08700 -0.12050 
-0.03050 0.07550 -0.02250 
-0.05650 0.05550 -0.05800 
-0.00800 0.03000 -0.06550 
0.05750 0.04750 -0.05000 
-0.00250 0.05900 -0.02150 
0.01250 0.16100 -0.05300 
0.00800 0.11250 -0.02850 
0.06600 0.15150 -0.02950 
-0.02450 0.05200 -0.04800 
0.06250 0.08950 -0.11150 
0.02700 0.13450 -0.11150 
0.05150 0.06000 0.04100 
0.08700 0.13100 0.07750 
0.05100 0.08100 -0.11150 
0.00400 0.08000 -0.00850 
0.02150 0.10300 0.02000 
0.04050 0.12250 -0.09800 
0.07550 0.13250 -0.03050 
0.05800 0.04750 0.05850 
-0.00250 0.12350 -0.05750 
0.02100 0.12800 -0.08600 
0.01250 0.03900 -0.01900 
-0.02700 0.03700 -0.03200 
-0.06050 0.06550 -0.00800 
0.02800 0.11700 -0.03850 
0.06550 0.11450 -0.01450 
0.06850 0.00050 0.00500 
0.05200 0.15850 -0.02500 
-0.01900 0.05700 -0.04450 
0.12800 0.06050 -0.00900 
0.03600 0.08750 0.01550 
0.04400 0.05350 0.01900 
0.05200 0.12100 -0.09850 
0.04050 0.14350 0.00400 
0.02300 0.07200 0.07050 
-0.13250 0.07950 -0.09900 
0.04200 0.13400 0.03350 
-0.03050 -0.01750 -0.02850 
0.05500 0.11350 -0.05800 
-0.00800 0.13350 -0.04200 
0.01000 0.21150 -0.01350 
0.02900 0.10200 -0.10850 
0.08350 0.09750 -0.05700 
0.03600 0.17950 -0.03000 
-0.00100 -0.00750 -0.00550 
0.04900 0.06650 -0.00600 
0.00800 0.10100 0.03700 
-0.06750 0.03550 -0.07950 
0.00350 0.12600 -0.03550 
0.07150 0.13850 -0.03550 
0.03850 0.14150 -0.01850 
0.06450 0.07600 -0.00250 
0.03600 0.04650 -0.02650 
0.00900 0.07800 0.03300 
-0.06450 0.06350 -0.08950 
0.06250 0.13750 -0.05650 
-0.02050 0.06050 0.00450 
0.04050 0.09900 -0.05400 
-0.12850 0.00550 -0.03750 
0.00750 0.13400 -0.05950 
0.00450 0.13000 -0.00450 
0.13500 0.02400 -0.15050 
0.04900 0.04450 -0.08250 
0.03350 0.04250 -0.05100 
0.05100 0.11550 -0.07300 
0.07350 0.09400 0.03000 
0.00550 0.05500 -0.03000 
0.04500 0.13800 0.05200 
0.00250 0.14750 0.00200 
0.07350 0.10700 -0.01450 
0.04500 0.17050 -0.09200 
0.14600 0.07500 -0.05850 
0.02900 0.02050 0.01100 
0.02450 0.11950 -0.02100 
-0.00950 0.07550 0.00500 
0.08000 0.15250 -0.07850 
-0.09750 0.01050 -0.03600 
0.15400 0.13200 -0.05250 
0.03450 0.09150 0.01700 
0.01450 0.10050 -0.09450 
0.03000 0.11750 0.03450 
-0.09600 0.05150 -0.02850 
0.06750 0.11350 -0.17100 
-0.04350 0.09100 -0.06000 
0.09500 0.08450 0.00250 
0.00500 0.07250 -0.12800 
0.08200 0.09950 -0.00500 
0.06250 0.04550 0.06200 
0.11700 0.12700 -0.12550 
0.00650 0.07250 -0.03950 
0.13400 0.07800 -0.19300 
0.08900 0.08100 0.07500 
0.00900 0.16200 0.00300 
0.08300 0.13150 -0.07600 
0.11300 0.04950 -0.06500 
0.09250 0.09350 -0.00800 
-0.02050 0.09850 0.00850 
0.01600 0.03950 0.00650 
0.07850 0.10000 -0.05600 
0.05600 0.16150 -0.10400 
-0.01350 0.11550 0.02750 
0.05100 0.12950 0.03100 
-0.02550 0.01150 -0.01600 
0.02800 0.03400 -0.06300 
0.03300 0.16550 0.06550 
0.03600 0.10150 -0.04900 
0.01150 0.14850 -0.00500 
0.04500 0.05050 -0.01600 
0.05900 0.05250 0.04350 
-0.04050 0.10550 0.00600 
0.00250 0.01550 -0.04050 
-0.02800 0.17300 -0.05600 
-0.04800 0.05950 -0.05500 
0.01750 0.03450 -0.01550 
0.08900 0.11750 -0.06900 
0.03200 0.07550 -0.06100 
0.07850 0.12650 -0.07550 
0.01100 0.05000 0.00450 
0.09850 0.18150 -0.01800 
0.09650 0.14600 -0.08000 
0.06200 0.11000 -0.02800 
0.05500 0.01450 -0.00100 
0.07100 0.03700 -0.05850 
-0.01200 0.07950 -0.04200 
0.07150 0.10950 -0.01100 
0.01350 -0.02950 -0.03650 
0.02750 0.06250 0.06650 
0.12800 0.03250 -0.10000 
0.01200 0.09400 -0.05100 
0.05450 0.04200 0.08500 
0.12200 0.07350 -0.12550 
-0.09800 0.07050 -0.09650 
0.02800 0.08200 0.04700 
0.01500 0.05900 -0.01150 
0.02400 0.09700 0.04400 
0.03550 0.10500 -0.09850 
0.11900 0.11850 -0.02600 
0.04850 0.03200 -0.03250 
0.05850 0.18400 -0.01900 
0.01900 -0.00250 0.00850 
0.00600 0.11400 0.01250 
0.00100 0.05900 -0.02850 
-0.01250 0.09250 -0.07300 
0.02500 0.03250 -0.00600 
0.01050 0.11700 -0.00900 
0.13300 0.09000 -0.10550 
0.05100 0.06100 -0.08750 
0.02150 0.12700 -0.08000 
0.06200 0.12300 -0.03100 
0.08450 0.02050 0.05100 
-0.01550 0.08300 0.13600 
0.03700 0.02550 0.01050 
0.07450 0.09150 0.09250 
0.04050 0.15400 0.01150 
0.00600 0.11250 -0.05600 
0.10700 0.08150 0.00450 
-0.00950 0.07400 -0.02250 
-0.01650 0.02900 0.02250 
-0.01600 0.05000 -0.14100 
0.08400 0.15700 -0.04700 
0.10350 0.07300 -0.07600 
0.01400 0.16250 -0.06600 
0.00300 0.02600 -0.08550 
0.02000 0.05550 -0.08850 
-0.02950 0.02950 -0.03400 
0.15550 0.12200 0.04550 
0.00750 0.08100 -0.05400 
-0.01250 0.07150 -0.01500 
0.02650 0.11400 0.02150 
-0.01100 0.04200 -0.04350 
0.03500 0.08950 0.05900 
0.05800 0.07600 0.02550 
-0.01350 0.14800 0.01650 
0.05400 0.08300 -0.03900 
0.03800 0.11600 -0.01250 
0.02450 0.10950 -0.08850 
0.06100 0.05050 -0.02800 
-0.03900 0.01450 -0.05250 
0.06600 0.11350 -0.10500 
0.11350 0.11200 -0.17250 
0.06150 0.11200 0.05750 
-0.01950 0.12600 -0.08450 
0.08150 0.09250 0.06350 
0.03800 0.01900 0.01750 
-0.02450 0.08350 0.02200 
-0.06750 0.06100 -0.05200 
0.10750 0.02000 0.11100 
0.04150 0.02500 -0.03150 
0.04150 0.07550 -0.00900 
0.02000 0.15850 0.06250 
0.12450 0.10350 -0.03200 
0.05600 0.04700 -0.03900 
-0.02800 0.07800 -0.02000 
-0.03100 0.05200 -0.03650 
0.01700 0.05450 -0.05950 
0.08400 0.10300 -0.06750 
0.14050 0.08600 0.08400 
0.00450 0.06950 -0.00050 
0.06850 0.11300 -0.07750 
0.01900 0.07600 -0.06950 
-0.02650 0.06500 -0.03450 
0.08950 0.01700 -0.02500 
0.02100 0.11550 0.02600 
-0.02450 -0.05400 -0.08400 
0.07050 0.08350 -0.07000 
0.05500 0.10250 0.03700 
0.01550 0.07950 -0.12300 
0.08900 0.17050 -0.06600 
0.02900 0.05100 -0.09100 
0.10150 0.12700 -0.01750 
0.08350 0.08600 -0.13050 
-0.04150 -0.01750 -0.01150 
0.05850 0.05400 0.02800 
0.02600 0.12900 -0.04600 
0.00800 0.10600 -0.15300 
0.06350 0.07850 0.01500 
0.10000 0.17050 -0.05850 
0.09800 0.12200 -0.15950 
0.00400 0.04550 0.00200 
0.04450 0.03250 0.01050 
0.02100 0.00950 0.01150 
-0.05950 0.07400 0.09450 
0.07250 0.11550 0.01400 
0.09850 0.14200 0.03400 
-0.06050 0.06000 -0.09800 
-0.07400 0.04350 -0.06400 
0.04200 -0.01800 -0.08300 
-0.06850 0.03050 -0.07800 
0.03150 0.08100 0.01500 
0.03250 0.06600 0.03950 
0.06250 0.08250 -0.04250 
0.09550 0.05550 -0.03150 
0.08350 0.13200 0.02900 
0.06350 -0.01450 -0.06650 
0.03250 0.12000 -0.16300 
0.04900 0.13550 0.13900 
-0.01800 0.03600 -0.02550 
0.03950 0.12550 0.11000 
0.02550 0.03400 -0.03650 
0.09350 0.07850 -0.05500 
-0.03350 0.08150 -0.03250 
-0.00500 -0.00150 -0.04800 
-0.00750 0.19250 -0.03650 
0.00550 0.02300 -0.07050 
0.14350 0.10050 0.05150 
0.07950 0.06200 -0.01050 
-0.02050 0.08600 -0.07600 
0.07150 0.10450 -0.10050 
-0.03700 0.10400 -0.06100 
-0.02450 0.05600 -0.00750 
0.05150 0.01900 -0.00950 
0.02150 0.12350 -0.07200 
0.05600 0.04550 -0.06900 
0.04800 0.07650 -0.01100 
0.02200 0.07050 -0.08200 
-0.02550 0.04400 -0.04950 
0.09950 0.11800 -0.15750 
0.02750 0.12250 -0.07050 
0.06650 0.08200 -0.00950 
0.14700 0.10650 -0.15500 
0.04250 0.03750 -0.02000 
-0.02750 0.07700 -0.03400 
-0.00150 0.13250 -0.03800 
-0.00650 0.05050 -0.03450 
0.07700 0.17250 0.05150 