# vtk DataFile Version 2.0 
Xm, Ym, Zm, Uvecs, timestep 10169 
ASCII 
 
DATASET POLYDATA POINTS 437 float 
  5.248  -0.163 -71.677 
  0.252   1.011 -70.646 
 -4.402  -4.739 -70.144 
 13.320   1.337 -71.637 
  4.396   2.303 -68.554 
 10.236   2.449 -71.633 
  1.604   5.955 -69.478 
-10.184   3.854 -71.779 
  0.110   3.510 -67.750 
  2.973   4.675 -67.818 
  7.050   5.572 -75.133 
 -8.794   7.599 -72.629 
 -8.212   5.117 -69.301 
 -5.587   8.887 -70.814 
 -6.416   8.768 -68.981 
  3.963   7.086 -68.665 
 -2.627   9.343 -67.981 
 -0.841   4.986 -70.766 
  2.087   7.470 -68.572 
 -9.338   2.218 -71.207 
  7.547  -8.064 -71.167 
  3.110   4.495 -72.180 
  8.875  10.644 -69.175 
 -1.113  -9.918 -70.856 
 -7.365   5.207 -67.257 
  4.710  -7.149 -70.213 
  6.037 -10.459 -73.702 
 -1.583 -11.778 -68.990 
 -6.039   4.657 -74.796 
-11.741  -3.273 -73.941 
 11.023   1.018 -68.800 
  6.383   5.426 -67.960 
  2.216   6.281 -75.132 
 -8.508   6.853 -67.947 
  2.247   5.550 -69.305 
 -3.923  -2.021 -68.769 
  6.561  -1.992 -69.954 
  0.903   6.509 -70.288 
 15.631   5.886 -72.898 
 -1.785   2.081 -65.138 
 -6.091   3.376 -66.501 
 -1.864  -0.617 -60.835 
-11.166  10.108 -73.933 
  3.843   8.141 -68.138 
  5.588   4.223 -70.001 
 -3.942  -8.347 -69.674 
 -5.945   1.232 -71.805 
 12.633   0.384 -71.376 
  7.467  -4.031 -69.300 
  4.688  -2.149 -63.743 
  3.120  11.198 -67.317 
 10.621   9.286 -69.409 
  1.278   8.884 -69.870 
  1.148  -6.246 -64.959 
 -2.530   8.536 -71.365 
 -0.247  -9.922 -71.221 
  6.756  -0.677 -68.966 
 14.403   5.986 -70.433 
 -2.107 -10.601 -71.517 
  4.332   6.503 -67.890 
 -4.772  10.018 -65.891 
 -3.140  -6.664 -69.257 
  2.227  -3.394 -65.034 
 -3.044 -11.436 -67.678 
  4.603  10.819 -67.898 
 10.134   6.611 -71.081 
  2.918   4.070 -66.268 
  5.053   5.449 -69.081 
  5.147   6.697 -75.777 
  4.672  -4.551 -72.947 
-10.038  -8.418 -67.192 
  8.536  10.162 -69.602 
  5.541   0.089 -68.471 
 -7.777   6.039 -69.475 
  6.796   1.679 -68.156 
 -1.091   7.188 -63.709 
 -5.778   5.413 -65.740 
 -5.462   5.266 -65.588 
  4.652   7.261 -73.825 
 11.342  -5.849 -69.859 
  6.450  -9.242 -71.195 
  8.198   1.649 -62.834 
 -3.599  11.038 -73.126 
  7.281   4.245 -70.609 
 -8.430  -2.862 -63.731 
-10.163  -0.113 -66.657 
  2.898  -0.660 -64.483 
 -0.590  11.470 -71.407 
  1.710   6.737 -68.071 
  0.088   9.911 -66.056 
 -0.828  11.907 -66.971 
-10.608  -2.087 -64.244 
  7.720   8.678 -70.455 
  0.004 -10.750 -68.910 
 14.331   3.763 -70.559 
 -2.329   5.202 -71.344 
 13.669   4.243 -69.820 
 -1.433   6.165 -63.295 
 -0.715   0.762 -72.237 
 -2.236   1.228 -67.180 
 12.424   9.837 -70.793 
-13.612  -8.135 -67.602 
 -6.551  -6.101 -63.701 
 -1.037  -3.859 -62.927 
 14.997   8.271 -67.214 
  0.709  -1.892 -67.096 
  4.637   9.239 -62.712 
 -2.833   0.789 -67.311 
 -7.792  -5.082 -64.530 
 15.267   7.533 -68.376 
  6.799   0.296 -71.637 
 -0.850  -7.098 -68.188 
-11.370   7.548 -69.499 
 13.558   0.028 -72.562 
 -0.750  -1.155 -68.898 
 -1.630  -1.292 -72.261 
  8.779  -2.861 -70.452 
 16.125   2.192 -68.493 
  7.183   3.462 -68.185 
 -8.590  -1.327 -74.870 
 -5.989  -9.430 -69.050 
  0.732  12.638 -62.684 
 -8.620  -9.064 -66.959 
  8.219   7.804 -72.252 
  1.425  -0.233 -60.805 
  0.340   8.657 -76.477 
  8.146  12.146 -68.274 
  2.066   3.101 -65.778 
 14.900  -3.401 -70.654 
  9.641  11.540 -70.066 
-14.002  -7.857 -75.702 
  4.027 -11.700 -62.535 
 -8.376   5.103 -62.882 
  3.774  -8.880 -63.769 
  8.660  -0.865 -66.978 
 -6.734  12.947 -65.234 
  6.523  -9.126 -62.082 
-11.826  11.710 -68.075 
-13.119  -6.481 -74.588 
-12.687  -5.519 -63.925 
 -5.761  10.717 -64.703 
  0.275  -4.520 -64.914 
 -8.227   3.604 -61.639 
-13.266  10.560 -74.331 
 -0.170   8.548 -69.891 
-12.443  -3.611 -73.783 
-11.456   9.079 -66.445 
  5.836   5.398 -69.651 
 -5.009   2.362 -63.372 
 -4.227   1.937 -66.517 
  9.490   7.783 -70.596 
 16.570  -4.342 -72.166 
 14.551   1.468 -69.469 
 11.451 -10.406 -68.778 
  5.392  11.012 -64.900 
  9.714  -6.620 -72.899 
  5.681   5.344 -63.389 
 11.677 -11.297 -72.282 
 -7.777 -10.425 -63.965 
 16.407   7.947 -70.016 
 -4.776 -10.839 -69.422 
  8.052   7.325 -65.663 
 -4.809  -9.796 -63.805 
  3.113  -9.469 -62.436 
 13.730   9.788 -68.742 
 -7.713 -10.347 -66.060 
  6.507  -6.768 -69.124 
  3.022   1.964 -69.016 
  5.107   1.407 -62.450 
 -5.310  -9.777 -68.376 
 14.968 -13.079 -71.297 
  4.643   5.077 -65.132 
  4.713   2.649 -65.596 
  7.047   4.859 -63.331 
  8.063 -12.557 -69.357 
 -6.640  -1.338 -66.356 
  8.459 -12.167 -69.766 
 -7.127  11.863 -75.111 
 -8.551  -7.087 -65.523 
 11.911  10.273 -65.717 
 14.579  -8.704 -70.139 
  4.410   6.349 -71.743 
-11.988  -9.651 -70.744 
 12.242   3.436 -68.160 
  2.873   9.254 -65.442 
 -0.748  -9.654 -71.370 
  8.909   2.356 -70.856 
 -2.458  -1.706 -62.508 
  5.964  -5.489 -70.170 
 11.804   3.193 -69.954 
 -4.968   3.666 -61.825 
-10.368 -11.666 -73.172 
 17.937  -2.751 -70.779 
 -2.548  -4.810 -71.308 
 -9.936  -8.359 -60.292 
  5.950   2.317 -72.882 
-14.823  10.884 -71.831 
 -9.420   2.631 -61.608 
 13.365 -12.255 -70.174 
 14.038   7.311 -68.883 
 -8.989  12.032 -67.186 
 -4.845   3.644 -74.667 
 -2.599   6.597 -64.487 
 -1.974   6.609 -70.132 
 13.130 -12.492 -73.153 
-12.916   1.204 -67.398 
 11.061  -1.061 -60.990 
 14.837   7.650 -73.740 
  2.572  -3.192 -72.801 
 12.842   3.856 -64.501 
 -9.274  11.318 -69.628 
  3.931   8.204 -70.084 
 -9.333   9.067 -66.918 
  8.712 -10.815 -72.608 
 10.611 -10.810 -72.581 
 -5.333 -11.416 -69.289 
  4.856  -1.051 -66.799 
 -1.115  -8.271 -68.708 
  6.291  -7.105 -67.807 
 -7.895  -3.369 -75.173 
  6.053   5.122 -67.993 
 -6.607  -0.363 -64.263 
 -1.902   0.169 -72.130 
  2.530  -5.829 -75.854 
  0.887  -2.189 -70.371 
 12.152  12.004 -74.700 
 -6.990  -8.890 -73.504 
  8.191 -10.280 -69.680 
-13.772   8.677 -72.477 
-14.529 -11.496 -71.410 
  7.817   1.278 -72.876 
 11.486  -9.110 -69.651 
  4.934  -3.848 -65.889 
 -2.412   2.001 -69.637 
  7.380   7.201 -64.200 
  7.541 -11.130 -72.092 
 11.782  -6.685 -68.840 
 12.433   7.132 -66.999 
  0.654  11.091 -71.969 
 -9.264   3.305 -67.876 
 11.191   3.724 -73.844 
  5.505  12.291 -62.779 
 10.269   6.904 -63.053 
 -2.657   2.099 -60.689 
  3.317   5.149 -63.755 
 -2.691   3.741 -75.810 
 14.405   4.441 -63.291 
  0.923  -5.406 -69.770 
-15.045  11.276 -75.597 
 14.659   1.092 -67.128 
 13.424  -4.175 -74.501 
  6.193  -7.079 -69.665 
 13.270  -9.989 -70.686 
  8.184   3.849 -62.215 
  6.441  -1.828 -70.126 
 -5.569  -7.851 -67.444 
  3.386  -6.816 -70.184 
-13.469   8.454 -68.146 
 -6.710   2.976 -71.428 
 -0.868  -3.681 -65.649 
 11.474   2.527 -66.768 
 -0.434  -0.698 -73.558 
 16.443  10.450 -74.637 
  4.734  -2.141 -61.142 
-10.140  11.595 -73.247 
 14.480  -1.700 -72.957 
-10.985  11.261 -65.580 
-10.098  -2.269 -64.413 
 -6.487   1.452 -74.375 
 -3.373  11.760 -63.443 
  1.185  -2.162 -73.583 
 -5.987   7.330 -77.823 
  8.173  10.416 -67.212 
 11.843   6.231 -62.201 
  5.689  10.333 -68.686 
  2.590   1.805 -72.472 
 -0.363  -2.043 -73.317 
  2.117  -8.776 -64.591 
  9.824   8.618 -68.694 
 -2.728  11.138 -71.525 
 -0.079  10.135 -72.668 
 -4.280   4.973 -69.585 
 -6.689   9.354 -75.805 
  1.551  -5.132 -67.867 
  0.688  -5.844 -65.118 
 -2.792  -6.122 -70.082 
  0.914 -12.451 -63.279 
-12.566  11.052 -72.209 
 -7.018   5.507 -65.456 
  7.830  -5.346 -75.345 
 -0.473  -2.471 -60.642 
-12.519 -11.190 -66.572 
-11.726  -3.336 -67.374 
 -4.781  -1.297 -73.121 
-12.633   3.546 -64.310 
-10.883  12.222 -67.466 
 -2.240   2.661 -61.027 
  0.858   1.950 -62.022 
  0.644  10.177 -74.535 
  7.447  -4.198 -74.499 
 11.375  -3.930 -71.138 
 -3.184 -11.567 -65.826 
-16.178  -8.287 -74.781 
 13.829  -4.821 -66.508 
 14.839  -4.303 -67.525 
  1.518   6.252 -66.201 
  3.529   9.784 -56.041 
-10.833   3.181 -61.823 
  5.152  -6.587 -64.704 
-11.019   9.962 -68.511 
 -5.210  -2.500 -61.797 
 -2.439 -10.145 -62.894 
 -8.922   6.178 -74.579 
 10.452   2.543 -67.693 
  0.266  -7.115 -62.703 
 -2.611 -10.349 -68.049 
 -7.344  -2.452 -62.509 
  3.247  -0.298 -60.121 
 -8.514  13.153 -61.644 
  8.133 -10.492 -63.168 
 -3.760  12.666 -65.749 
 -7.345  -3.330 -62.439 
-11.047  -4.219 -60.747 
 -3.134 -12.684 -69.109 
 -7.042   0.424 -64.082 
-11.882  10.506 -63.585 
 11.602  -7.292 -66.177 
 12.149  -2.974 -73.975 
-12.543 -12.656 -65.492 
 -7.060   5.907 -72.638 
-13.755 -11.316 -68.864 
 -3.054   7.140 -57.903 
  7.218  -4.447 -59.525 
  1.748  -9.603 -60.528 
 17.559 -10.456 -70.148 
 11.323  -9.875 -64.898 
 12.628   8.463 -70.614 
 -8.111   6.540 -62.702 
 13.864  -2.600 -70.906 
-10.390  11.183 -70.698 
 14.518  -7.623 -70.028 
 16.481   7.098 -73.550 
-16.199   2.655 -74.171 
  3.151 -12.913 -66.630 
  0.324  -4.358 -70.082 
 -5.818   9.143 -72.412 
  8.492  10.125 -59.323 
 17.336  -4.704 -65.456 
  9.176 -12.089 -69.665 
 13.909  11.912 -71.321 
  4.399 -10.063 -72.697 
-10.445   1.493 -72.928 
  5.050   8.790 -76.572 
  6.027   8.576 -65.937 
 11.212   4.348 -66.480 
 -9.432 -10.545 -71.999 
  2.426  -5.650 -70.401 
 -3.830 -10.140 -68.849 
  7.822   2.643 -62.587 
-12.355   0.932 -69.496 
  0.987   8.537 -75.220 
-13.224   7.314 -71.316 
 -9.828   0.599 -75.623 
 -6.348 -12.771 -65.466 
 -1.942  -1.957 -72.488 
 16.408  -7.412 -70.577 
  4.803  -9.848 -65.394 
-10.671   7.301 -70.981 
  1.912  11.547 -60.197 
 -8.865   5.152 -62.336 
  7.745   2.375 -62.398 
  3.189  -9.549 -67.356 
-10.854   2.944 -69.505 
  5.483  -7.176 -61.731 
 -5.718   0.106 -61.462 
-10.128  12.671 -64.436 
 -9.724 -10.249 -65.114 
  6.412   1.785 -60.617 
  5.412  -6.517 -76.785 
-15.015  -7.367 -68.414 
 -8.130  -1.168 -66.893 
 10.586  -8.851 -60.508 
  0.018   3.121 -73.347 
 -8.712  10.078 -71.979 
 16.578   0.371 -64.839 
 -1.212  11.125 -70.712 
-13.775  -8.752 -75.988 
  7.756  -4.291 -70.414 
-12.365  -0.387 -62.736 
 15.000 -12.451 -68.205 
 -4.555   3.986 -68.706 
  0.746   6.044 -67.964 
 -5.226   9.688 -73.188 
  1.613  -1.115 -63.085 
  4.490   0.881 -72.799 
 -6.707 -10.342 -70.114 
 14.027  -1.971 -72.860 
  0.378   5.866 -65.203 
  3.993  -3.894 -73.720 
  1.549  -2.886 -71.314 
  4.941  -1.353 -61.844 
 12.530  -6.937 -70.978 
 -8.665  12.259 -60.635 
 -4.287  -6.005 -67.644 
 13.274  12.332 -63.350 
  4.069  -0.908 -67.700 
 15.955   2.823 -67.917 
 10.280   6.176 -78.045 
-11.910   6.583 -77.576 
 -0.818   0.457 -60.996 
 -5.678  -7.175 -62.215 
 -5.294  13.015 -59.891 
 17.134  -9.143 -64.732 
 14.851   9.386 -71.886 
 -3.312  -3.290 -65.592 
  6.548  -5.959 -72.856 
  2.059  -3.332 -70.704 
 12.532   1.611 -63.629 
  7.172  10.274 -69.673 
-11.977  -0.561 -66.855 
 10.436   8.832 -64.721 
 -5.874  -3.146 -74.025 
  3.465 -10.493 -71.550 
-12.474   2.896 -69.305 
 10.305   9.692 -71.622 
  1.922   5.864 -76.490 
 -5.133  -6.296 -71.107 
  8.261  -0.704 -68.328 
 -0.301  -8.140 -74.978 
 -1.566   3.584 -69.533 
  6.066   3.152 -75.108 
 16.685   7.969 -70.459 
 -8.810   7.489 -62.786 
-14.934   3.253 -67.481 
 -4.907   9.202 -59.096 
-10.383  -6.260 -73.587 
 -6.463  -3.175 -61.437 

 VERTICES 437 874 
1 0 
1 1 
1 2 
1 3 
1 4 
1 5 
1 6 
1 7 
1 8 
1 9 
1 10 
1 11 
1 12 
1 13 
1 14 
1 15 
1 16 
1 17 
1 18 
1 19 
1 20 
1 21 
1 22 
1 23 
1 24 
1 25 
1 26 
1 27 
1 28 
1 29 
1 30 
1 31 
1 32 
1 33 
1 34 
1 35 
1 36 
1 37 
1 38 
1 39 
1 40 
1 41 
1 42 
1 43 
1 44 
1 45 
1 46 
1 47 
1 48 
1 49 
1 50 
1 51 
1 52 
1 53 
1 54 
1 55 
1 56 
1 57 
1 58 
1 59 
1 60 
1 61 
1 62 
1 63 
1 64 
1 65 
1 66 
1 67 
1 68 
1 69 
1 70 
1 71 
1 72 
1 73 
1 74 
1 75 
1 76 
1 77 
1 78 
1 79 
1 80 
1 81 
1 82 
1 83 
1 84 
1 85 
1 86 
1 87 
1 88 
1 89 
1 90 
1 91 
1 92 
1 93 
1 94 
1 95 
1 96 
1 97 
1 98 
1 99 
1 100 
1 101 
1 102 
1 103 
1 104 
1 105 
1 106 
1 107 
1 108 
1 109 
1 110 
1 111 
1 112 
1 113 
1 114 
1 115 
1 116 
1 117 
1 118 
1 119 
1 120 
1 121 
1 122 
1 123 
1 124 
1 125 
1 126 
1 127 
1 128 
1 129 
1 130 
1 131 
1 132 
1 133 
1 134 
1 135 
1 136 
1 137 
1 138 
1 139 
1 140 
1 141 
1 142 
1 143 
1 144 
1 145 
1 146 
1 147 
1 148 
1 149 
1 150 
1 151 
1 152 
1 153 
1 154 
1 155 
1 156 
1 157 
1 158 
1 159 
1 160 
1 161 
1 162 
1 163 
1 164 
1 165 
1 166 
1 167 
1 168 
1 169 
1 170 
1 171 
1 172 
1 173 
1 174 
1 175 
1 176 
1 177 
1 178 
1 179 
1 180 
1 181 
1 182 
1 183 
1 184 
1 185 
1 186 
1 187 
1 188 
1 189 
1 190 
1 191 
1 192 
1 193 
1 194 
1 195 
1 196 
1 197 
1 198 
1 199 
1 200 
1 201 
1 202 
1 203 
1 204 
1 205 
1 206 
1 207 
1 208 
1 209 
1 210 
1 211 
1 212 
1 213 
1 214 
1 215 
1 216 
1 217 
1 218 
1 219 
1 220 
1 221 
1 222 
1 223 
1 224 
1 225 
1 226 
1 227 
1 228 
1 229 
1 230 
1 231 
1 232 
1 233 
1 234 
1 235 
1 236 
1 237 
1 238 
1 239 
1 240 
1 241 
1 242 
1 243 
1 244 
1 245 
1 246 
1 247 
1 248 
1 249 
1 250 
1 251 
1 252 
1 253 
1 254 
1 255 
1 256 
1 257 
1 258 
1 259 
1 260 
1 261 
1 262 
1 263 
1 264 
1 265 
1 266 
1 267 
1 268 
1 269 
1 270 
1 271 
1 272 
1 273 
1 274 
1 275 
1 276 
1 277 
1 278 
1 279 
1 280 
1 281 
1 282 
1 283 
1 284 
1 285 
1 286 
1 287 
1 288 
1 289 
1 290 
1 291 
1 292 
1 293 
1 294 
1 295 
1 296 
1 297 
1 298 
1 299 
1 300 
1 301 
1 302 
1 303 
1 304 
1 305 
1 306 
1 307 
1 308 
1 309 
1 310 
1 311 
1 312 
1 313 
1 314 
1 315 
1 316 
1 317 
1 318 
1 319 
1 320 
1 321 
1 322 
1 323 
1 324 
1 325 
1 326 
1 327 
1 328 
1 329 
1 330 
1 331 
1 332 
1 333 
1 334 
1 335 
1 336 
1 337 
1 338 
1 339 
1 340 
1 341 
1 342 
1 343 
1 344 
1 345 
1 346 
1 347 
1 348 
1 349 
1 350 
1 351 
1 352 
1 353 
1 354 
1 355 
1 356 
1 357 
1 358 
1 359 
1 360 
1 361 
1 362 
1 363 
1 364 
1 365 
1 366 
1 367 
1 368 
1 369 
1 370 
1 371 
1 372 
1 373 
1 374 
1 375 
1 376 
1 377 
1 378 
1 379 
1 380 
1 381 
1 382 
1 383 
1 384 
1 385 
1 386 
1 387 
1 388 
1 389 
1 390 
1 391 
1 392 
1 393 
1 394 
1 395 
1 396 
1 397 
1 398 
1 399 
1 400 
1 401 
1 402 
1 403 
1 404 
1 405 
1 406 
1 407 
1 408 
1 409 
1 410 
1 411 
1 412 
1 413 
1 414 
1 415 
1 416 
1 417 
1 418 
1 419 
1 420 
1 421 
1 422 
1 423 
1 424 
1 425 
1 426 
1 427 
1 428 
1 429 
1 430 
1 431 
1 432 
1 433 
1 434 
1 435 
1 436 
POINT_DATA 437 
SCALARS MeanU double 1 
LOOKUP_TABLE default
0.23073 
0.26190 
0.21358 
0.21117 
0.03012 
0.14654 
0.11668 
0.18438 
0.07214 
0.15637 
0.28067 
0.14082 
0.13271 
0.16528 
0.12202 
0.06703 
0.09306 
0.14536 
0.03790 
0.13021 
0.11782 
0.20161 
0.14300 
0.08669 
0.16216 
0.21927 
0.11046 
0.11232 
0.13919 
0.14032 
0.22890 
0.18246 
0.22758 
0.08808 
0.11508 
0.33760 
0.13894 
0.12483 
0.17392 
0.22895 
0.20243 
0.22404 
0.18165 
0.08853 
0.14463 
0.05015 
0.18534 
0.22554 
0.29213 
0.22919 
0.09645 
0.08121 
0.05907 
0.24247 
0.13920 
0.06718 
0.13335 
0.18835 
0.10929 
0.09574 
0.10692 
0.18629 
0.22304 
0.11659 
0.12903 
0.13033 
0.13810 
0.14442 
0.15775 
0.22248 
0.14974 
0.09338 
0.12400 
0.14719 
0.08904 
0.08411 
0.20636 
0.18917 
0.15054 
0.21694 
0.10705 
0.12155 
0.15830 
0.19362 
0.17043 
0.19734 
0.13808 
0.17596 
0.08617 
0.15813 
0.22070 
0.20902 
0.10778 
0.15813 
0.16290 
0.17110 
0.13448 
0.09522 
0.13884 
0.21463 
0.12523 
0.17768 
0.23691 
0.20807 
0.13083 
0.31082 
0.10162 
0.18859 
0.18888 
0.13394 
0.16771 
0.25794 
0.10121 
0.17897 
0.26018 
0.14786 
0.20809 
0.21446 
0.13847 
0.08895 
0.11609 
0.11828 
0.15876 
0.13648 
0.04792 
0.08512 
0.19858 
0.13349 
0.21834 
0.13812 
0.14083 
0.02295 
0.23147 
0.04983 
0.21766 
0.15688 
0.23138 
0.13736 
0.13222 
0.10507 
0.09064 
0.27684 
0.10402 
0.19361 
0.09780 
0.24840 
0.12019 
0.19539 
0.15688 
0.14418 
0.12071 
0.19450 
0.13454 
0.07242 
0.10105 
0.30677 
0.09431 
0.11721 
0.27918 
0.19837 
0.11603 
0.04575 
0.09799 
0.07940 
0.09985 
0.09624 
0.12976 
0.19802 
0.15203 
0.15386 
0.04633 
0.09692 
0.17816 
0.05268 
0.09853 
0.27142 
0.12371 
0.15421 
0.14985 
0.04969 
0.06540 
0.20131 
0.18920 
0.04981 
0.06004 
0.09174 
0.10219 
0.20603 
0.17869 
0.07420 
0.26561 
0.07448 
0.21095 
0.03294 
0.13788 
0.22319 
0.22770 
0.15790 
0.07326 
0.11968 
0.10231 
0.17826 
0.22079 
0.17786 
0.09275 
0.20570 
0.26362 
0.16469 
0.20473 
0.08826 
0.10528 
0.07182 
0.06295 
0.10289 
0.05979 
0.15809 
0.12531 
0.22992 
0.14037 
0.08093 
0.19754 
0.17184 
0.21672 
0.10118 
0.27542 
0.20362 
0.16059 
0.06078 
0.07724 
0.04756 
0.24158 
0.16192 
0.19832 
0.20620 
0.07366 
0.12566 
0.27550 
0.12228 
0.22704 
0.15686 
0.19515 
0.14753 
0.11804 
0.15445 
0.18794 
0.20682 
0.14569 
0.20638 
0.27708 
0.13055 
0.22511 
0.13132 
0.06803 
0.06747 
0.12284 
0.16050 
0.18020 
0.10527 
0.12092 
0.29882 
0.18757 
0.13662 
0.21084 
0.15424 
0.16412 
0.21862 
0.06966 
0.21826 
0.16983 
0.10538 
0.30115 
0.17414 
0.15103 
0.03950 
0.10185 
0.20582 
0.15801 
0.10418 
0.14933 
0.12904 
0.07441 
0.16479 
0.17497 
0.18926 
0.14338 
0.17607 
0.09443 
0.17993 
0.13221 
0.14650 
0.19626 
0.18827 
0.12698 
0.17638 
0.15098 
0.13486 
0.19676 
0.12138 
0.11019 
0.15216 
0.20727 
0.23943 
0.12999 
0.24049 
0.14993 
0.13054 
0.13423 
0.13017 
0.11761 
0.09832 
0.13700 
0.10688 
0.13264 
0.11978 
0.11814 
0.13337 
0.19100 
0.17310 
0.09351 
0.03621 
0.14757 
0.19931 
0.11662 
0.09637 
0.14010 
0.06581 
0.10237 
0.20742 
0.11051 
0.19237 
0.12845 
0.11156 
0.32236 
0.05446 
0.09168 
0.13128 
0.12396 
0.15331 
0.17133 
0.07546 
0.06894 
0.22261 
0.16881 
0.07536 
0.27679 
0.19635 
0.10670 
0.08823 
0.10647 
0.13025 
0.10182 
0.17103 
0.12113 
0.13170 
0.09201 
0.17298 
0.11467 
0.10376 
0.11325 
0.18512 
0.09597 
0.18765 
0.11141 
0.15031 
0.18195 
0.15534 
0.12301 
0.12482 
0.10454 
0.20322 
0.21468 
0.17951 
0.11111 
0.14369 
0.23621 
0.10645 
0.13284 
0.06214 
0.17130 
0.12003 
0.25219 
0.11623 
0.12297 
0.10751 
0.16001 
0.17131 
0.13116 
0.25145 
0.13236 
0.04067 
0.14618 
0.09185 
0.21453 
0.13894 
0.17946 
0.15341 
0.19162 
0.11315 
0.18692 
0.21674 
0.21916 
0.06032 
0.24298 
0.25946 
0.13006 
0.21716 
0.17304 
0.24642 
0.07245 
0.08844 
0.28052 
0.11947 
0.05793 
0.14093 
0.29832 
0.17075 
0.09649 
0.06416 
0.13157 
0.15456 
0.04579 
0.15821 
0.08959 
0.12992 
0.18648 
0.19708 
0.16491 
0.15737 
0.12314 
0.15077 
0.26586 
0.23098 
0.22722 
0.20613 
0.14022 
0.21456 
0.25156 

 VECTORS Umean float 
0.13500 0.09100 -0.16350 
0.08150 0.14950 -0.19900 
0.12600 0.14050 -0.10000 
-0.00650 0.17500 -0.11800 
0.00800 0.02900 -0.00150 
-0.05300 0.04200 -0.13000 
0.01500 0.00700 -0.11550 
0.14850 0.07950 -0.07500 
0.01550 0.06850 -0.01650 
0.04800 0.03350 -0.14500 
0.07100 0.00450 -0.27150 
0.02800 0.08400 -0.10950 
0.09250 0.06950 -0.06500 
-0.07150 0.11800 -0.09100 
-0.09700 0.03450 -0.06550 
-0.01950 -0.01200 -0.06300 
-0.07750 0.05150 -0.00100 
-0.00150 0.06400 -0.13050 
0.00950 -0.01250 -0.03450 
0.09200 0.06050 -0.06950 
0.09750 0.04550 -0.04800 
0.06000 0.04350 -0.18750 
0.05400 -0.11700 0.06200 
0.03650 0.07850 0.00450 
0.14400 0.07450 0.00300 
0.12100 -0.07450 -0.16700 
0.09050 0.04950 -0.03950 
0.01050 -0.04800 -0.10100 
-0.00150 0.12000 -0.07050 
0.04500 0.05500 -0.12100 
0.07700 0.07250 -0.20300 
0.08900 0.10300 -0.12150 
0.10250 0.06650 -0.19200 
-0.03800 0.04350 -0.06650 
0.03650 0.00550 -0.10900 
0.21400 0.15450 -0.21050 
0.08900 0.02150 -0.10450 
0.00150 0.00900 -0.12450 
0.07000 0.14300 -0.07000 
0.13050 0.06900 -0.17500 
0.16250 0.11850 -0.02300 
0.06000 0.09150 -0.19550 
0.01600 0.10550 -0.14700 
-0.03150 -0.03700 -0.07400 
0.04250 0.09050 -0.10450 
0.00100 0.04800 -0.01450 
0.10700 0.10850 -0.10550 
0.07950 0.10250 -0.18450 
0.09200 -0.02650 -0.27600 
0.05850 0.10050 -0.19750 
-0.08600 -0.02800 -0.03350 
0.02300 -0.02100 -0.07500 
-0.05300 0.00200 -0.02600 
-0.04850 0.10000 -0.21550 
-0.02150 0.04900 -0.12850 
0.05150 0.03550 -0.02450 
0.08300 0.01350 -0.10350 
0.04650 0.12500 -0.13300 
0.07450 0.07350 -0.03150 
0.07350 -0.02000 -0.05800 
-0.06900 0.05700 -0.05850 
0.15950 0.04700 -0.08400 
-0.03500 -0.06650 -0.21000 
0.11300 0.01900 0.02150 
-0.04950 -0.06850 0.09750 
0.09400 -0.04950 -0.07550 
0.03550 0.04100 -0.12700 
0.11100 0.03500 -0.08550 
0.04200 -0.00400 -0.15200 
0.13350 0.11300 -0.13750 
0.05650 0.10550 -0.09000 
0.03700 -0.08050 -0.02950 
0.05050 0.08700 -0.07250 
0.06650 0.10600 -0.07750 
-0.02200 -0.04600 -0.07300 
0.07600 0.03600 0.00150 
0.12250 0.16000 0.04450 
0.11950 0.14450 -0.02500 
0.00250 0.00250 -0.15050 
0.10650 -0.00100 -0.18900 
0.09400 0.03200 -0.04000 
-0.03900 -0.03850 -0.10850 
-0.07750 0.13650 -0.02050 
0.02700 0.11750 -0.15150 
0.04900 0.08050 -0.14200 
0.12200 0.15000 -0.03950 
0.09550 -0.06900 -0.07200 
-0.17500 0.01650 0.00800 
0.00550 0.02250 -0.08300 
-0.14900 -0.01000 0.05200 
-0.13800 -0.05850 0.16200 
0.02850 0.17050 -0.11750 
0.04850 -0.04700 -0.08400 
0.13000 0.07350 0.05200 
-0.06700 0.14150 -0.04500 
-0.00150 0.10700 -0.13350 
0.00650 0.10900 -0.07850 
0.09050 0.02750 0.01100 
0.05500 0.12300 -0.03350 
0.14150 0.07850 -0.14100 
0.06300 0.05450 -0.09350 
0.02600 0.06700 -0.16250 
-0.00600 0.05850 -0.22950 
0.08600 0.05600 -0.18100 
0.05400 0.07450 -0.09300 
0.15150 0.09950 -0.25250 
0.09100 0.01050 0.04400 
0.13050 0.04500 -0.12850 
0.08200 0.09450 -0.14150 
0.08100 0.09200 -0.05400 
0.09400 0.06450 -0.12300 
0.18800 0.03550 -0.17300 
-0.00100 0.09950 -0.01850 
0.02250 0.12900 -0.12200 
0.13350 0.13150 -0.18050 
0.06950 0.13050 0.00100 
0.09800 -0.00500 -0.18350 
-0.12100 0.17550 -0.02350 
-0.00750 0.06600 -0.12150 
-0.01150 0.04800 -0.07400 
0.08200 0.07650 -0.03000 
-0.08950 0.07300 -0.02550 
0.04200 0.08550 -0.12700 
0.12400 -0.05300 -0.02100 
-0.00900 -0.00250 -0.04700 
-0.01650 0.00100 -0.08350 
-0.11100 -0.15150 0.06450 
0.02550 -0.02000 -0.12950 
0.10000 0.04200 -0.18950 
-0.06600 -0.12100 -0.00900 
0.07300 0.11900 0.01850 
-0.02150 -0.00050 0.00800 
0.19400 0.08700 0.09150 
-0.04350 0.01950 -0.01450 
0.08600 0.03700 -0.19650 
-0.07800 0.08350 -0.10750 
-0.12750 0.03700 -0.18950 
0.00850 0.08250 -0.10950 
0.06650 0.11400 0.00800 
0.04650 0.07650 -0.05500 
-0.03650 0.08150 -0.01550 
0.01550 -0.01500 -0.27600 
0.07750 0.05900 0.03650 
0.03800 0.14200 -0.12600 
-0.02200 0.06300 -0.07150 
0.19600 0.13400 0.07300 
0.02250 0.10550 0.05300 
0.05800 0.10750 -0.15250 
0.06650 0.12250 -0.07200 
0.12700 0.05800 -0.03600 
0.09500 -0.04200 -0.06150 
0.04400 0.01900 -0.18850 
-0.10050 0.08850 0.01300 
0.06750 0.00800 -0.02500 
0.00250 -0.00200 0.10100 
0.00500 -0.08400 -0.29500 
-0.04900 -0.06650 -0.04550 
0.07650 0.07050 -0.05400 
0.07600 -0.08600 -0.25450 
0.10150 0.11850 -0.12250 
0.09450 0.01050 -0.06650 
0.03000 0.01300 -0.03200 
0.07950 -0.05650 -0.00950 
-0.03000 -0.00150 0.07350 
0.00500 0.07200 -0.06900 
0.00450 0.00500 -0.09600 
0.11450 0.05500 0.02650 
0.10600 0.12600 -0.11000 
0.06850 0.10700 -0.08350 
0.12100 0.08550 0.04150 
0.00050 -0.03350 -0.03200 
0.02550 0.03550 -0.08650 
0.01450 0.11050 -0.13900 
-0.01100 0.00150 -0.05150 
0.06850 0.06850 0.01800 
0.14450 0.19500 -0.12150 
0.10200 0.06300 0.03050 
-0.01450 0.14000 -0.06300 
0.03700 0.04200 -0.13900 
0.01750 0.04150 0.02100 
0.00600 -0.04050 -0.05100 
0.03800 0.03800 -0.19400 
0.18250 -0.00950 -0.04900 
-0.04050 0.02050 -0.02050 
0.00350 0.05300 0.02800 
0.03050 0.04400 -0.07450 
-0.00600 -0.02250 -0.09950 
0.07050 0.07250 -0.17950 
0.07950 -0.04350 -0.15400 
-0.04250 -0.04400 -0.04200 
0.08950 0.09700 -0.23050 
0.05450 0.04850 0.01500 
-0.09900 -0.13900 -0.12400 
0.01250 0.02000 -0.02300 
-0.01700 -0.01500 -0.13600 
0.12550 0.13150 -0.12950 
0.07550 0.19750 -0.08450 
0.09100 0.12300 0.03900 
0.05850 -0.02150 -0.03850 
0.05850 0.08400 -0.06200 
-0.01550 0.07950 -0.06250 
0.04900 0.16250 -0.05450 
0.18450 0.11500 -0.03850 
0.01000 0.12150 -0.12950 
0.05700 -0.01300 -0.07200 
0.03450 0.19750 0.04600 
0.08600 0.07700 -0.23700 
0.07600 0.09200 -0.11350 
0.04800 0.09750 -0.17350 
-0.08450 0.02300 -0.01100 
-0.02550 0.03200 -0.09700 
-0.01900 -0.06550 -0.02250 
-0.02500 0.02300 -0.05300 
0.08250 0.05950 -0.01550 
0.03000 0.01500 -0.04950 
0.08500 0.10350 0.08400 
0.07100 0.01250 -0.10250 
0.18350 0.05050 -0.12900 
0.06200 0.12400 0.02200 
-0.03450 0.05050 -0.05300 
0.12800 0.08300 -0.12550 
0.05750 0.11350 -0.11550 
0.05000 0.16200 -0.13500 
0.05350 0.02550 -0.08200 
0.09950 0.07700 -0.24500 
-0.00100 0.12400 -0.16150 
0.12400 0.10200 -0.00300 
0.02650 0.04400 0.03250 
0.01650 0.07450 0.01200 
0.00950 0.00300 -0.04650 
0.07300 0.09450 -0.21000 
0.12950 0.05800 -0.07800 
0.06150 0.08050 -0.17050 
0.17550 0.07900 -0.07400 
0.06950 -0.01400 -0.02000 
0.10900 0.06250 0.00200 
-0.02400 -0.11650 -0.24850 
0.06400 0.08850 -0.05500 
-0.21900 -0.03950 -0.04500 
0.08500 0.03350 -0.12750 
0.08400 0.02400 -0.17450 
-0.02350 0.00650 0.14550 
0.01700 -0.04450 0.10800 
-0.01050 0.13900 -0.06650 
-0.05550 0.09150 -0.15450 
0.10350 0.17800 0.01950 
-0.10450 0.10150 -0.00150 
0.10950 0.04700 -0.16850 
0.10600 0.20450 -0.15400 
-0.12100 -0.00100 0.04900 
0.05950 -0.03350 -0.21450 
0.05300 0.12000 0.00600 
0.06350 -0.02250 0.00950 
-0.03450 0.04100 -0.04100 
0.06450 0.00300 -0.10450 
0.10500 0.08950 -0.08200 
0.08350 -0.04400 -0.15350 
0.03600 0.06450 -0.07500 
0.03050 0.06900 -0.09450 
0.09500 0.12450 -0.25450 
0.17500 0.06750 -0.00000 
-0.00400 0.10400 -0.08850 
0.09250 0.05600 -0.18100 
0.04800 0.08200 -0.12150 
-0.06200 0.07350 -0.13300 
0.04850 0.10850 -0.18350 
0.05400 0.00100 -0.04400 
0.04800 0.15450 -0.14650 
-0.04000 0.10950 -0.12350 
-0.08750 0.04300 0.04000 
0.09500 0.12900 -0.25500 
0.04050 0.12100 -0.11850 
0.05300 -0.13650 0.03700 
-0.03900 0.00300 -0.00550 
-0.05250 -0.08550 0.01750 
0.12450 0.10600 -0.12500 
0.06950 0.06900 -0.12400 
-0.07000 0.02900 -0.07150 
-0.01600 -0.05600 -0.13750 
-0.12150 0.01700 0.04000 
-0.03500 0.06300 0.01850 
0.10200 0.09350 -0.08950 
0.02000 0.10950 -0.13500 
-0.01250 0.02250 -0.18750 
-0.05200 0.05100 -0.12350 
0.14550 0.07400 -0.06600 
-0.02750 -0.08100 0.04000 
0.06300 0.09000 -0.14250 
0.08250 0.08150 0.06350 
0.08200 0.07300 -0.09700 
0.07600 0.02650 -0.17900 
0.05450 0.04300 -0.17500 
0.10150 0.04650 0.06050 
0.02700 0.12350 -0.12300 
0.12650 0.04800 -0.06700 
0.05350 0.02100 -0.12200 
0.08900 0.06500 -0.16300 
-0.01500 -0.11750 -0.02650 
-0.02900 0.01950 -0.10450 
0.11350 0.04250 -0.09200 
0.14900 0.00500 -0.14400 
0.23550 0.03800 -0.02050 
0.11750 0.04400 -0.03400 
0.13750 -0.11750 -0.15850 
0.08350 -0.04400 -0.11650 
0.02750 0.01250 -0.12700 
0.01550 0.07750 0.10850 
0.07450 0.08350 0.06650 
0.06100 0.02650 -0.09700 
-0.01750 0.06350 -0.07300 
0.03900 0.03150 -0.12750 
0.04950 -0.00650 -0.09450 
0.01600 0.08850 -0.09750 
0.07200 0.08650 -0.04100 
0.00550 -0.04400 -0.10950 
0.11950 0.03250 -0.04950 
0.00200 0.02750 -0.18900 
0.04450 0.06650 -0.15350 
0.02700 0.08950 0.00200 
-0.02000 0.01350 -0.02700 
-0.11900 0.06650 0.05650 
0.04050 0.05050 -0.18850 
0.05200 0.00900 -0.10400 
0.08700 0.02750 -0.03100 
0.11250 0.08350 -0.00050 
-0.00900 0.04900 0.04300 
-0.04650 0.01750 -0.08950 
0.11000 -0.04100 -0.17100 
0.05300 0.07150 0.06550 
0.09900 0.15050 -0.06750 
0.05350 -0.00800 -0.11650 
0.05550 0.02300 0.09400 
0.12050 0.08550 -0.28650 
-0.05350 -0.00200 0.01000 
-0.04600 -0.07700 0.01900 
0.11350 0.05850 0.03050 
0.01900 0.09100 -0.08200 
0.03700 0.09500 -0.11450 
0.10350 0.00300 -0.13650 
-0.03950 0.03850 -0.05150 
-0.00850 -0.01800 -0.06600 
0.09900 0.06350 -0.18900 
0.03450 0.15600 -0.05450 
0.04750 0.01850 0.05550 
0.14300 0.03750 -0.23400 
0.01850 0.15950 -0.11300 
-0.02400 0.07200 0.07500 
0.08450 -0.01350 -0.02150 
0.07400 0.06400 0.04200 
0.09900 0.02100 -0.08200 
0.08650 0.02600 -0.04700 
0.09600 0.13800 0.03150 
0.08050 -0.00100 -0.09050 
0.09600 0.08350 -0.03400 
0.02550 0.07550 -0.04600 
0.15600 0.07300 -0.01600 
0.06050 0.09600 -0.01650 
0.08450 0.02450 -0.05500 
-0.07650 -0.00050 -0.08350 
-0.01000 0.17600 0.05650 
0.06200 0.01050 -0.07250 
0.08100 -0.03550 -0.16550 
0.03100 0.06300 -0.08650 
0.13150 0.06800 0.02600 
0.09950 0.13800 -0.06450 
-0.07600 -0.07000 -0.11600 
-0.00800 0.04550 0.11400 
0.04850 0.06100 -0.09750 
0.04450 0.09150 0.02400 
0.16400 0.11350 0.03900 
-0.02350 0.01950 -0.21250 
0.08900 -0.01100 -0.15550 
0.07850 0.07850 0.00450 
-0.03100 0.10550 -0.09250 
0.19050 0.11750 -0.07550 
0.00250 0.07600 0.07450 
0.01100 0.02750 -0.12950 
-0.02450 0.04350 -0.03700 
0.08650 0.04450 -0.14100 
0.04550 0.07150 -0.08500 
0.16900 0.18650 -0.01600 
-0.10150 0.00400 -0.05650 
0.00750 0.02800 -0.11950 
-0.04900 0.05400 -0.07900 
-0.01150 0.10800 -0.11750 
-0.16000 0.04500 0.04150 
0.06900 0.10450 -0.03900 
0.10600 -0.00250 -0.22800 
0.01950 0.12400 -0.04200 
0.03300 -0.00900 -0.02200 
0.03250 0.09850 -0.10300 
-0.01600 -0.00900 -0.09000 
0.03550 0.19100 -0.09100 
-0.00700 0.00850 -0.13850 
0.10250 0.11300 -0.09450 
0.15050 0.02200 -0.02000 
0.05000 0.06550 -0.17300 
0.01750 0.10400 -0.04100 
0.12500 0.09650 -0.10000 
0.08850 0.10450 -0.16800 
0.13100 0.05900 -0.16550 
0.04300 0.04200 0.00500 
0.12250 0.19050 0.08800 
0.15350 0.10400 -0.18150 
0.09800 0.00100 0.08550 
0.06150 0.07950 -0.19250 
-0.07500 0.15400 -0.02450 
0.09200 0.08300 -0.21300 
-0.01250 0.06850 -0.02000 
0.00850 0.00250 -0.08800 
-0.16950 0.00250 -0.22350 
0.01800 0.11750 0.01200 
0.05500 -0.01450 -0.01100 
0.04400 0.05050 -0.12400 
0.03500 0.07350 -0.28700 
0.11100 0.06800 -0.11050 
0.07650 0.04900 -0.03250 
0.00250 0.03750 -0.05200 
0.01000 -0.08550 0.09950 
0.09300 0.10950 0.05700 
0.02550 0.01800 -0.03350 
0.03450 0.09200 -0.12400 
0.07000 0.01450 -0.05400 
0.04500 0.11800 0.03050 
0.11800 0.02000 -0.14300 
0.05750 0.05600 -0.18000 
0.02850 0.16000 -0.02800 
0.07950 0.02750 -0.13300 
0.04600 0.03250 -0.10950 
0.00600 0.10900 -0.10400 
0.05250 0.06650 -0.25200 
0.12000 0.13000 -0.14850 
0.02700 0.17450 0.14300 
-0.03700 0.14950 0.13700 
0.10100 0.03300 0.09150 
0.16450 0.06300 -0.12250 
0.01400 0.03650 -0.24850 
SCALARS NextParticleID double 1 
LOOKUP_TABLE default
1 
159 
50 
3 
7 
183 
6 
11 
8 
774 
25 
21 
15 
147 
20 
112 
14 
775 
334 
54 
87 
91 
28 
481 
46 
806 
57 
4 
9 
59 
36 
19 
10 
23 
47 
349 
37 
103 
158 
18 
32 
181 
39 
40 
341 
49 
53 
138 
107 
63 
120 
174 
78 
777 
175 
90 
117 
141 
17 
58 
198 
41 
84 
355 
51 
196 
89 
85 
528 
295 
97 
92 
400 
65 
93 
108 
68 
520 
791 
179 
13 
69 
22 
64 
151 
374 
512 
77 
170 
72 
154 
390 
219 
109 
225 
256 
135 
74 
0 
114 
83 
399 
121 
393 
140 