# vtk DataFile Version 2.0 
Xm, Ym, Zm, Uvecs, timestep 10168 
ASCII 
 
DATASET POLYDATA POINTS 461 float 
  7.232   4.012 -70.311 
 13.328   0.967 -71.443 
 -6.152   1.009 -71.600 
-11.201   9.890 -73.634 
  2.357   1.600 -72.242 
 10.366   2.365 -71.370 
  7.633   8.781 -70.316 
 -7.185   5.332 -65.551 
  1.198   6.596 -67.855 
  4.356   2.234 -68.559 
  1.795  -8.020 -70.453 
  0.070   3.382 -67.647 
 -2.002   6.395 -69.778 
 14.316   5.748 -70.180 
  3.975   8.308 -70.044 
  4.340   6.282 -71.380 
  2.178   5.535 -69.089 
  1.379   8.886 -69.825 
  6.922   5.543 -74.611 
  6.215   5.240 -67.718 
 -1.831 -10.266 -70.050 
  2.882   4.607 -67.573 
 -7.190  -4.409 -71.935 
 -0.839   4.864 -70.518 
 -8.403   4.981 -69.189 
  1.779   3.591 -69.167 
  2.072   7.496 -68.478 
 -0.025   9.995 -72.708 
  3.997   7.113 -68.525 
 -9.537   2.090 -71.065 
 -5.276   0.253 -74.072 
 14.486   3.452 -70.464 
 -6.225   8.694 -68.868 
  5.861 -10.567 -73.623 
 -0.129   8.427 -69.743 
  2.292  -8.813 -64.423 
  6.617  -0.706 -68.785 
  1.575   5.934 -69.248 
 11.903  -2.889 -73.578 
  6.391  -2.041 -69.735 
  5.498   4.058 -69.781 
 -4.852  -1.577 -72.814 
  0.406   8.605 -76.323 
 -0.817  -9.729 -71.245 
 -2.478   9.243 -67.976 
  3.900   8.206 -67.993 
 -6.412   3.130 -66.465 
 -2.066   1.928 -64.810 
  8.784  10.889 -69.303 
 13.515  -0.229 -72.337 
  4.700  10.951 -68.085 
 -8.450   6.751 -67.820 
  9.948   6.707 -70.941 
-10.628   1.224 -72.922 
  3.290  11.254 -67.252 
 -5.921  -0.337 -71.686 
  2.854   3.989 -66.043 
  2.293  -3.261 -64.614 
-10.502   3.696 -71.627 
 -1.583   3.346 -69.297 
  0.367   9.932 -66.132 
  7.286  -3.986 -68.743 
  7.990   7.880 -72.212 
 -5.172  -6.581 -70.975 
 -5.127   2.135 -63.203 
  0.159   0.594 -68.322 
  8.557  -2.851 -70.022 
  8.357  12.440 -68.403 
-10.163  -8.656 -66.989 
 12.488   0.191 -71.060 
 10.572   9.333 -69.266 
  1.002 -12.292 -63.392 
 10.843   0.869 -68.375 
  0.805  -5.975 -64.800 
 -9.872   0.467 -75.420 
-10.684  -2.377 -64.004 
  4.191   6.544 -67.777 
 -2.824  -3.252 -72.544 
 -3.459  -6.759 -69.091 
 -4.332  -2.313 -68.378 
 -1.008  -1.405 -68.522 
  0.689  -5.499 -69.412 
 -1.599 -11.669 -68.736 
 -4.019   1.228 -63.439 
 -8.529  -3.026 -63.416 
 14.701   1.235 -69.509 
  1.359  -3.096 -70.916 
 11.870  10.177 -65.738 
-13.671  -8.270 -67.270 
-11.120   9.133 -61.414 
 11.022   3.658 -73.518 
 -4.682  -5.043 -69.916 
  8.275   1.718 -62.589 
 -5.717   4.974 -65.584 
 -7.918   5.191 -73.052 
-10.303  11.122 -70.534 
 -8.957  11.887 -67.043 
 -4.759   1.042 -63.061 
 -8.688  -1.514 -75.995 
 -0.830   0.564 -72.139 
 -0.209 -10.909 -69.007 
-10.425  -0.410 -66.604 
-13.274  -6.718 -74.640 
 -4.753  -9.265 -61.264 
  4.806   5.393 -68.908 
  2.346  -5.795 -70.301 
  8.458  -0.942 -66.558 
  7.370  -8.130 -71.052 
  7.221   3.319 -67.921 
-10.123  -5.107 -70.174 
 -6.522  -6.223 -63.189 
  5.704   2.073 -72.673 
  9.779  11.784 -70.047 
 -7.954  -5.269 -64.240 
  1.696   6.694 -67.896 
 -5.795  -8.050 -67.369 
  8.474  10.329 -69.567 
 12.299   9.733 -70.606 
 11.553 -11.453 -72.174 
  6.836   1.762 -67.984 
  1.038  -2.421 -73.106 
 -4.648   9.911 -65.785 
 13.043 -12.452 -73.007 
  1.258  -6.431 -64.507 
 -2.495   1.089 -66.886 
  3.001   4.417 -71.843 
  4.450   9.194 -62.770 
 -2.513   4.023 -60.938 
-11.855  -3.394 -73.709 
  2.027   3.138 -65.508 
  4.595   5.003 -64.971 
 10.779  -0.554 -67.248 
-11.503   8.841 -66.528 
  1.066  11.187 -71.904 
 -1.978   5.305 -68.252 
 -2.025  -7.418 -66.189 
 -0.255  11.450 -71.455 
 13.664   4.030 -69.674 
 -4.931   3.335 -74.546 
 -1.968  -0.153 -71.951 
 -1.241   7.113 -63.707 
 11.115  -5.842 -69.474 
 -7.331  -2.519 -62.087 
  2.468  -3.409 -72.478 
 16.196   7.698 -69.754 
  3.862  -8.927 -63.721 
  5.733   5.194 -69.355 
-10.678  -6.361 -73.377 
 -6.025   5.098 -65.814 
-12.797  -3.867 -73.895 
  4.633   2.421 -65.359 
 16.490  -4.373 -71.815 
 -8.203   6.359 -62.379 
 -2.469   8.426 -71.094 
  7.934 -12.682 -69.394 
  3.043 -12.940 -66.691 
  1.446  -0.206 -60.680 
 -3.070   0.710 -67.097 
 13.021  -0.974 -72.317 
 16.362   1.858 -68.459 
 12.111  11.786 -74.306 
 -1.397  10.369 -70.088 
 12.567   8.265 -70.486 
-11.033  -8.713 -65.333 
  3.277 -10.545 -71.503 
 14.901   8.125 -67.013 
 -2.343   4.996 -71.120 
 14.698  -3.490 -70.293 
-11.191  -4.229 -60.555 
  5.764   5.469 -63.285 
  3.169  -9.466 -62.564 
-13.774   8.456 -72.475 
  4.571   7.909 -74.496 
-12.562   2.665 -69.305 
 -8.628  -7.155 -65.319 
  5.834   4.984 -67.761 
 -2.607  -1.839 -62.121 
  0.688  -2.339 -69.909 
  8.120 -10.353 -69.716 
  9.316   7.865 -70.476 
  2.045   6.163 -74.776 
-10.049  11.485 -73.055 
  6.281   7.464 -67.096 
 14.950 -13.035 -71.245 
  1.839   5.720 -76.146 
  5.049  -6.669 -64.459 
  4.396  -4.777 -72.691 
 -4.751  -6.273 -67.405 
 -8.854   7.435 -72.394 
 -6.697  -0.568 -64.065 
 14.555  -8.620 -70.035 
 -0.909   0.348 -62.496 
 -7.217  -9.064 -73.510 
 16.096   2.532 -67.880 
  5.832   8.385 -65.845 
  0.900  12.474 -62.635 
  7.675   1.105 -72.504 
 -7.090  11.559 -74.959 
  8.939   2.423 -70.648 
  4.498  -6.970 -69.885 
  8.087  10.695 -67.379 
-11.035   2.791 -69.478 
 11.135   4.168 -66.447 
 12.486   0.308 -73.544 
 15.353   3.883 -69.641 
  4.769  -3.998 -65.506 
  7.212   7.236 -64.139 
  0.723  10.124 -74.355 
 -7.215   3.461 -66.675 
 12.376   4.282 -76.375 
-11.847  11.556 -67.891 
 -5.567  -9.941 -68.469 
  5.382  11.006 -65.061 
 -5.692  10.554 -64.655 
 -3.524  12.534 -65.916 
 13.015   3.803 -64.485 
 -7.831  -3.479 -75.098 
  6.859   5.264 -73.033 
 10.543 -10.845 -72.486 
 -2.603  -4.841 -71.216 
 12.301   3.369 -68.102 
 14.662   7.450 -73.487 
 -8.861   7.186 -62.990 
 -4.239  -5.164 -75.704 
 -4.515   1.807 -66.430 
  5.957   2.987 -74.661 
 14.942   1.051 -67.249 
-10.122  12.502 -64.507 
 -2.905   3.376 -75.799 
  4.061   5.821 -62.064 
 14.405  -1.889 -72.605 
-11.146  11.256 -65.536 
 -0.476  12.051 -67.283 
 13.168  -9.966 -70.697 
 11.976  -5.481 -68.444 
  6.978   4.107 -70.736 
 10.236   6.989 -63.204 
 -9.220  11.252 -69.446 
  0.889   6.473 -70.049 
 12.448  -7.027 -70.969 
 -1.779  -1.573 -72.191 
 -5.274   9.347 -72.987 
  4.702  -1.080 -66.593 
 -9.447   3.248 -67.642 
  3.520  -3.318 -68.888 
  7.978   7.321 -65.519 
 -3.040  -6.233 -69.969 
 -2.624   1.885 -60.505 
 -9.779 -10.703 -72.018 
  8.280 -12.266 -69.790 
 -1.481  -8.386 -68.501 
 13.317  -4.097 -74.010 
-13.538   8.344 -67.983 
 -6.793   2.832 -71.247 
 10.107   9.669 -71.399 
-14.124  -8.094 -75.672 
  8.242   3.786 -62.074 
 15.221 -11.743 -65.620 
 -8.422  -6.871 -63.332 
-10.186  -2.531 -64.140 
 -8.935   5.997 -74.389 
 -1.022  -3.926 -65.221 
 -1.047 -10.672 -68.597 
  5.789  -5.408 -69.843 
 -6.005  -0.099 -61.293 
 11.836  -6.482 -68.336 
  5.456  -0.110 -68.313 
 -8.462  -1.500 -66.867 
  7.058   4.864 -63.216 
  0.064   2.230 -64.786 
  5.781  10.525 -68.719 
-12.695  10.869 -71.923 
 11.085  -9.989 -64.980 
  2.387  -1.084 -68.123 
 15.773   6.937 -70.374 
 -1.187 -10.087 -70.859 
 -4.473   4.795 -69.427 
  2.053  -8.890 -65.298 
 -1.600   6.108 -63.246 
  4.631   7.232 -73.544 
  1.825   8.931 -75.427 
 14.694  -4.238 -67.266 
  7.225  -4.275 -74.322 
  5.069   6.686 -75.440 
-14.434  10.957 -69.609 
  0.861   2.190 -62.020 
-12.855   3.465 -64.127 
  4.563  -2.342 -63.369 
 -8.732   4.960 -63.069 
 -7.914 -10.251 -63.520 
 11.026  -3.914 -70.802 
 -7.294   0.259 -64.089 
-12.601 -11.315 -66.204 
 -3.597 -11.643 -65.800 
 -0.637  -2.533 -60.338 
  0.536   0.968 -60.605 
 13.703  11.866 -71.112 
  1.441   6.214 -65.856 
-12.756  -5.655 -63.768 
  0.272  -7.034 -62.388 
  5.437 -12.724 -66.511 
 14.730   9.325 -71.614 
-10.976   9.830 -68.357 
 -3.290 -11.486 -67.731 
 -2.421   2.532 -60.756 
 -5.989  -3.349 -73.776 
 11.858   3.261 -69.848 
 -4.528   5.134 -64.328 
  8.147 -10.523 -63.102 
 -0.965  11.056 -70.773 
  0.403  -2.104 -66.536 
-10.758   7.181 -70.814 
  6.794  -9.214 -61.791 
 -6.473  -3.275 -60.986 
 -2.829 -10.409 -67.956 
 -6.725   9.123 -75.534 
 -2.519 -10.113 -62.757 
  1.192   0.339 -61.532 
 -8.567  12.954 -61.653 
 -1.994  -0.782 -60.480 
  0.224  -4.472 -64.382 
-13.106   8.506 -76.014 
 17.177  -4.685 -65.416 
  0.774   6.058 -67.775 
  5.898  -8.849 -75.537 
 -5.295  -2.566 -61.501 
  6.447   1.704 -60.505 
 -4.028 -10.196 -68.794 
 -9.287   9.023 -66.848 
 10.064   6.037 -77.648 
 13.709   9.621 -68.654 
 -2.138  -2.235 -72.344 
 -2.961   6.367 -64.383 
 11.669  -7.316 -66.004 
  4.804  -9.927 -65.578 
  0.041  -4.434 -69.614 
  2.672  -0.481 -64.397 
 17.657 -10.290 -70.153 
 -1.517  -3.235 -58.898 
  4.280   0.641 -72.615 
  7.689  -5.504 -75.105 
-13.375  10.273 -74.049 
  5.553   7.540 -62.642 
 14.519  -7.585 -69.918 
-13.869 -11.296 -68.629 
 13.980 -12.416 -65.510 
 -9.040  -5.907 -65.166 
  6.283  -6.857 -69.179 
 -6.574 -12.919 -65.561 
 16.307   6.957 -73.257 
 -3.422  -2.559 -71.405 
 -4.953 -10.890 -69.297 
 -5.531 -11.642 -69.470 
 -8.713  -9.232 -66.722 
-14.959  10.476 -71.650 
  7.974   2.623 -62.427 
 10.155 -11.906 -72.734 
  7.312 -11.232 -72.090 
 -8.433   3.496 -61.718 
  1.816  11.365 -60.221 
  6.141  -7.357 -67.822 
 10.784  -8.852 -60.373 
 -2.752   1.837 -69.453 
-12.683 -12.801 -65.662 
  4.950   1.194 -62.279 
 16.608   0.156 -64.589 
  9.701  -6.501 -72.396 
 18.023   6.802 -70.606 
 -3.306 -12.739 -69.014 
 14.936  -4.828 -64.040 
  3.023  -9.515 -67.028 
 -2.482  11.104 -71.581 
 12.901  -5.322 -76.885 
 12.282   6.954 -66.888 
 -3.444  10.714 -73.069 
 -3.121   7.061 -58.067 
-12.367  -9.633 -70.640 
 17.281  -0.071 -68.267 
 13.230 -12.227 -70.065 
 -5.853   8.788 -72.169 
  2.603  -8.127 -68.938 
-14.874   2.951 -67.656 
  3.460   4.985 -63.395 
-12.355   0.563 -69.648 
 10.846  -1.216 -60.576 
 -0.401  -0.938 -73.455 
-12.392  -0.627 -62.623 
  8.070  -0.779 -68.052 
 -9.183   4.930 -62.424 
  3.718  -4.104 -73.524 
  7.784   2.330 -62.051 
 -9.948  -7.986 -67.362 
 -9.977  -4.560 -71.415 
  6.428  -3.377 -71.435 
 13.525  -3.063 -64.621 
-15.099  -7.492 -68.244 
 -0.009   3.059 -73.088 
 -0.814   0.423 -60.764 
  4.699  -1.485 -61.508 
 -4.620   3.785 -68.499 
 -5.108   9.116 -59.218 
  2.868   9.136 -65.461 
-11.624   8.155 -60.676 
-15.245  10.860 -75.334 
 -6.453   1.232 -74.115 
 -5.448   8.645 -70.615 
  7.550  -4.286 -69.970 
 11.448  -3.880 -62.846 
  5.233  -6.598 -76.563 
 14.214   0.079 -64.468 
 13.920   7.132 -68.761 
 -1.707  10.980 -62.457 
 17.026  -9.120 -64.726 
 -6.566  12.756 -65.070 
 17.275  -6.438 -72.558 
 13.622  -2.621 -70.554 
 16.163   9.269 -69.542 
-12.188   9.432 -72.090 
 12.516   4.213 -60.746 
 13.076   9.649 -64.254 
 10.320  -1.065 -68.331 
  3.711  -3.614 -77.749 
  6.102  -2.095 -62.688 
  6.622   0.177 -71.450 
 11.294 -10.419 -68.707 
  0.343   5.677 -65.080 
 15.761  -6.970 -65.460 
 13.089  12.365 -63.551 
 -5.315  12.772 -59.918 
-13.937  -8.979 -76.004 
 14.931 -12.453 -68.103 
 -0.421  -8.221 -74.809 
 -0.530  -2.194 -73.036 
 -6.091   7.127 -77.553 
  3.912  -1.087 -67.329 
 -8.617   9.961 -71.792 
 13.920  -2.127 -72.547 
  0.964  11.377 -76.151 
 12.542   1.546 -63.445 
 12.678   0.020 -61.737 
 11.210  -9.177 -69.466 
 -5.885  10.964 -63.321 
 -7.734  -7.138 -75.240 
 -6.226  -9.582 -68.993 
  4.229 -10.114 -72.618 
-12.703   2.184 -77.021 
-12.337   4.982 -76.997 
 -8.434   5.362 -62.440 
 16.460   7.720 -70.221 
 -0.315  -9.973 -71.120 
 15.471   5.530 -72.769 
  4.887   8.797 -76.389 
 -2.309 -10.760 -71.409 
 -4.999  -0.970 -74.656 
  6.332  -1.848 -69.876 
 12.613 -12.659 -64.508 
 -7.742 -10.362 -65.894 
  4.231  10.931 -65.059 
  5.995  -7.308 -69.674 
 -2.025   6.206 -74.363 
-11.557   2.605 -62.762 

 VERTICES 461 922 
1 0 
1 1 
1 2 
1 3 
1 4 
1 5 
1 6 
1 7 
1 8 
1 9 
1 10 
1 11 
1 12 
1 13 
1 14 
1 15 
1 16 
1 17 
1 18 
1 19 
1 20 
1 21 
1 22 
1 23 
1 24 
1 25 
1 26 
1 27 
1 28 
1 29 
1 30 
1 31 
1 32 
1 33 
1 34 
1 35 
1 36 
1 37 
1 38 
1 39 
1 40 
1 41 
1 42 
1 43 
1 44 
1 45 
1 46 
1 47 
1 48 
1 49 
1 50 
1 51 
1 52 
1 53 
1 54 
1 55 
1 56 
1 57 
1 58 
1 59 
1 60 
1 61 
1 62 
1 63 
1 64 
1 65 
1 66 
1 67 
1 68 
1 69 
1 70 
1 71 
1 72 
1 73 
1 74 
1 75 
1 76 
1 77 
1 78 
1 79 
1 80 
1 81 
1 82 
1 83 
1 84 
1 85 
1 86 
1 87 
1 88 
1 89 
1 90 
1 91 
1 92 
1 93 
1 94 
1 95 
1 96 
1 97 
1 98 
1 99 
1 100 
1 101 
1 102 
1 103 
1 104 
1 105 
1 106 
1 107 
1 108 
1 109 
1 110 
1 111 
1 112 
1 113 
1 114 
1 115 
1 116 
1 117 
1 118 
1 119 
1 120 
1 121 
1 122 
1 123 
1 124 
1 125 
1 126 
1 127 
1 128 
1 129 
1 130 
1 131 
1 132 
1 133 
1 134 
1 135 
1 136 
1 137 
1 138 
1 139 
1 140 
1 141 
1 142 
1 143 
1 144 
1 145 
1 146 
1 147 
1 148 
1 149 
1 150 
1 151 
1 152 
1 153 
1 154 
1 155 
1 156 
1 157 
1 158 
1 159 
1 160 
1 161 
1 162 
1 163 
1 164 
1 165 
1 166 
1 167 
1 168 
1 169 
1 170 
1 171 
1 172 
1 173 
1 174 
1 175 
1 176 
1 177 
1 178 
1 179 
1 180 
1 181 
1 182 
1 183 
1 184 
1 185 
1 186 
1 187 
1 188 
1 189 
1 190 
1 191 
1 192 
1 193 
1 194 
1 195 
1 196 
1 197 
1 198 
1 199 
1 200 
1 201 
1 202 
1 203 
1 204 
1 205 
1 206 
1 207 
1 208 
1 209 
1 210 
1 211 
1 212 
1 213 
1 214 
1 215 
1 216 
1 217 
1 218 
1 219 
1 220 
1 221 
1 222 
1 223 
1 224 
1 225 
1 226 
1 227 
1 228 
1 229 
1 230 
1 231 
1 232 
1 233 
1 234 
1 235 
1 236 
1 237 
1 238 
1 239 
1 240 
1 241 
1 242 
1 243 
1 244 
1 245 
1 246 
1 247 
1 248 
1 249 
1 250 
1 251 
1 252 
1 253 
1 254 
1 255 
1 256 
1 257 
1 258 
1 259 
1 260 
1 261 
1 262 
1 263 
1 264 
1 265 
1 266 
1 267 
1 268 
1 269 
1 270 
1 271 
1 272 
1 273 
1 274 
1 275 
1 276 
1 277 
1 278 
1 279 
1 280 
1 281 
1 282 
1 283 
1 284 
1 285 
1 286 
1 287 
1 288 
1 289 
1 290 
1 291 
1 292 
1 293 
1 294 
1 295 
1 296 
1 297 
1 298 
1 299 
1 300 
1 301 
1 302 
1 303 
1 304 
1 305 
1 306 
1 307 
1 308 
1 309 
1 310 
1 311 
1 312 
1 313 
1 314 
1 315 
1 316 
1 317 
1 318 
1 319 
1 320 
1 321 
1 322 
1 323 
1 324 
1 325 
1 326 
1 327 
1 328 
1 329 
1 330 
1 331 
1 332 
1 333 
1 334 
1 335 
1 336 
1 337 
1 338 
1 339 
1 340 
1 341 
1 342 
1 343 
1 344 
1 345 
1 346 
1 347 
1 348 
1 349 
1 350 
1 351 
1 352 
1 353 
1 354 
1 355 
1 356 
1 357 
1 358 
1 359 
1 360 
1 361 
1 362 
1 363 
1 364 
1 365 
1 366 
1 367 
1 368 
1 369 
1 370 
1 371 
1 372 
1 373 
1 374 
1 375 
1 376 
1 377 
1 378 
1 379 
1 380 
1 381 
1 382 
1 383 
1 384 
1 385 
1 386 
1 387 
1 388 
1 389 
1 390 
1 391 
1 392 
1 393 
1 394 
1 395 
1 396 
1 397 
1 398 
1 399 
1 400 
1 401 
1 402 
1 403 
1 404 
1 405 
1 406 
1 407 
1 408 
1 409 
1 410 
1 411 
1 412 
1 413 
1 414 
1 415 
1 416 
1 417 
1 418 
1 419 
1 420 
1 421 
1 422 
1 423 
1 424 
1 425 
1 426 
1 427 
1 428 
1 429 
1 430 
1 431 
1 432 
1 433 
1 434 
1 435 
1 436 
1 437 
1 438 
1 439 
1 440 
1 441 
1 442 
1 443 
1 444 
1 445 
1 446 
1 447 
1 448 
1 449 
1 450 
1 451 
1 452 
1 453 
1 454 
1 455 
1 456 
1 457 
1 458 
1 459 
1 460 
POINT_DATA 461 
SCALARS MeanU double 1 
LOOKUP_TABLE default
0.18854 
0.20930 
0.18196 
0.19006 
0.18024 
0.15879 
0.08743 
0.12964 
0.10574 
0.05170 
0.22548 
0.10741 
0.24421 
0.16905 
0.04835 
0.17492 
0.11227 
0.05193 
0.25866 
0.16701 
0.11013 
0.11400 
0.19446 
0.13127 
0.12794 
0.01871 
0.06081 
0.08170 
0.07978 
0.14545 
0.19290 
0.19634 
0.11248 
0.11096 
0.09757 
0.14320 
0.09678 
0.11675 
0.26724 
0.14243 
0.14379 
0.24521 
0.10000 
0.06941 
0.08621 
0.08090 
0.20388 
0.23065 
0.14869 
0.16576 
0.11995 
0.08558 
0.12089 
0.16115 
0.09355 
0.19641 
0.10910 
0.22168 
0.20285 
0.18454 
0.13314 
0.29531 
0.10914 
0.16231 
0.15227 
0.17504 
0.27553 
0.18504 
0.18743 
0.17293 
0.07791 
0.12258 
0.25618 
0.21968 
0.13590 
0.17802 
0.08957 
0.17458 
0.18587 
0.29916 
0.26130 
0.23163 
0.16545 
0.17023 
0.19806 
0.15497 
0.27203 
0.05981 
0.18586 
0.15653 
0.17787 
0.25857 
0.14541 
0.20167 
0.19557 
0.12498 
0.10516 
0.14331 
0.11978 
0.11572 
0.12737 
0.20312 
0.15818 
0.12323 
0.16287 
0.09909 
0.25533 
0.10569 
0.16555 
0.18187 
0.29106 
0.18238 
0.14216 
0.19217 
0.09460 
0.16303 
0.09134 
0.12339 
0.11110 
0.10675 
0.26256 
0.08768 
0.08385 
0.25976 
0.20223 
0.16189 
0.10267 
0.20471 
0.14643 
0.14113 
0.08674 
0.26269 
0.13737 
0.20166 
0.10402 
0.17994 
0.16495 
0.12373 
0.16618 
0.16679 
0.08394 
0.23016 
0.23648 
0.19860 
0.21982 
0.06302 
0.17910 
0.16167 
0.20029 
0.20309 
0.16718 
0.16691 
0.23189 
0.16028 
0.08538 
0.06137 
0.08318 
0.14147 
0.18688 
0.19627 
0.25390 
0.14076 
0.12400 
0.19028 
0.12417 
0.13509 
0.13575 
0.20422 
0.12730 
0.08945 
0.06085 
0.14738 
0.08560 
0.12424 
0.08063 
0.15014 
0.22922 
0.24964 
0.05237 
0.10650 
0.18474 
0.07480 
0.17541 
0.02920 
0.18823 
0.16417 
0.21659 
0.18816 
0.15186 
0.12732 
0.07003 
0.17421 
0.12596 
0.15258 
0.15707 
0.12283 
0.19339 
0.18765 
0.11999 
0.21329 
0.19569 
0.13112 
0.11606 
0.20431 
0.22239 
0.24687 
0.10919 
0.09717 
0.14295 
0.29278 
0.10355 
0.16552 
0.06149 
0.09418 
0.17396 
0.09358 
0.06996 
0.27129 
0.06267 
0.08185 
0.06262 
0.20350 
0.14544 
0.21992 
0.18389 
0.22479 
0.18174 
0.09355 
0.21984 
0.13940 
0.18890 
0.10709 
0.27442 
0.03853 
0.28700 
0.22311 
0.06155 
0.09636 
0.11879 
0.06341 
0.18464 
0.18680 
0.13472 
0.14680 
0.26618 
0.12017 
0.11931 
0.14064 
0.21169 
0.08521 
0.20791 
0.28405 
0.10506 
0.12603 
0.11316 
0.13623 
0.10494 
0.09966 
0.11865 
0.17133 
0.13120 
0.21971 
0.05051 
0.20171 
0.16126 
0.27220 
0.14519 
0.21905 
0.06344 
0.10895 
0.11481 
0.18309 
0.14536 
0.33214 
0.16933 
0.09712 
0.14244 
0.10929 
0.10154 
0.13344 
0.15815 
0.15714 
0.14234 
0.18946 
0.22283 
0.12517 
0.15388 
0.21019 
0.19570 
0.21839 
0.27874 
0.16242 
0.21091 
0.18103 
0.15711 
0.11051 
0.16801 
0.22446 
0.11972 
0.20860 
0.15408 
0.16652 
0.10879 
0.13990 
0.15555 
0.18469 
0.06949 
0.21160 
0.04271 
0.09244 
0.36173 
0.09926 
0.18313 
0.21146 
0.11089 
0.18307 
0.05735 
0.12489 
0.11288 
0.18929 
0.26111 
0.30126 
0.07639 
0.09977 
0.12831 
0.17855 
0.08495 
0.11814 
0.03423 
0.22844 
0.09771 
0.18733 
0.22060 
0.08562 
0.07837 
0.27581 
0.17097 
0.10420 
0.18747 
0.19007 
0.17651 
0.22432 
0.04702 
0.04860 
0.13448 
0.05578 
0.11320 
0.11783 
0.14108 
0.14974 
0.26375 
0.10860 
0.19220 
0.14627 
0.23969 
0.10923 
0.08250 
0.12638 
0.14290 
0.10388 
0.15588 
0.12545 
0.21570 
0.15520 
0.16347 
0.17124 
0.21108 
0.26991 
0.10964 
0.19849 
0.19115 
0.12562 
0.10534 
0.13604 
0.20613 
0.09044 
0.20471 
0.07403 
0.10381 
0.23425 
0.22218 
0.15951 
0.23373 
0.21513 
0.23304 
0.13966 
0.13650 
0.18660 
0.19506 
0.21118 
0.13728 
0.09532 
0.13478 
0.22917 
0.23629 
0.10760 
0.14497 
0.14724 
0.21654 
0.14925 
0.11748 
0.06615 
0.14756 
0.25603 
0.17463 
0.17791 
0.23783 
0.27329 
0.12854 
0.07485 
0.12714 
0.06981 
0.05399 
0.15075 
0.12835 
0.25584 
0.25515 
0.24345 
0.07302 
0.11004 
0.26308 
0.13457 
0.26813 
0.11848 
0.10057 
0.11932 
0.05768 
0.14923 
0.12586 
0.16259 
0.08817 
0.10690 
0.20135 
0.18448 
0.22453 
0.13305 
0.17567 
0.15548 
0.13536 
0.22536 
0.18097 
0.15665 
0.11604 
0.17443 
0.09362 
0.18489 
0.02893 
0.19346 
0.18253 
0.07970 
0.23877 
0.12405 
0.17177 
0.18036 
0.15325 
0.08874 
0.07467 
0.07638 
0.18112 
0.20603 
0.17191 

 VECTORS Umean float 
0.02200 0.11600 -0.14700 
-0.00200 0.19500 -0.07600 
0.09950 0.11450 -0.10050 
0.01900 0.11250 -0.15200 
0.10750 0.09900 -0.10550 
-0.07650 0.04250 -0.13250 
0.03850 -0.05600 -0.05500 
0.08500 0.09250 0.03200 
0.00200 0.01900 -0.10400 
0.03200 0.04000 0.00700 
0.16150 0.01050 -0.15700 
0.02450 0.05950 -0.08600 
0.01800 0.09200 -0.22550 
0.04050 0.11250 -0.11950 
-0.02500 -0.03750 -0.01750 
0.03250 0.02850 -0.16950 
0.03250 0.01000 -0.10700 
-0.04800 -0.00350 -0.01950 
0.05750 0.02450 -0.25100 
0.07900 0.08300 -0.12150 
0.05000 0.09800 -0.00500 
0.04250 0.03450 -0.10000 
0.11900 0.12250 -0.09300 
-0.00150 0.05850 -0.11750 
0.09800 0.06750 -0.04700 
-0.00100 0.01800 0.00500 
0.00450 -0.01400 -0.05900 
-0.01900 0.07650 0.02150 
-0.01450 -0.01500 -0.07700 
0.10650 0.06750 -0.07250 
-0.00900 0.13500 -0.13750 
-0.08750 0.16850 -0.05000 
-0.09400 0.03950 -0.04750 
0.08550 0.05900 -0.03900 
-0.01900 0.05750 -0.07650 
-0.10500 0.00850 -0.09700 
0.05600 0.01500 -0.07750 
0.01450 0.01400 -0.11500 
0.13650 -0.04400 -0.22550 
0.08100 0.02700 -0.11400 
0.04650 0.07350 -0.11450 
0.04400 0.15600 -0.18400 
-0.05000 0.05100 -0.07000 
0.03750 0.03100 -0.04950 
-0.07150 0.04800 -0.00400 
-0.02600 -0.02750 -0.07150 
0.15900 0.12700 -0.01250 
0.15100 0.08450 -0.15250 
0.03700 -0.12800 0.06600 
0.01950 0.12800 -0.10350 
-0.04750 -0.06350 0.09000 
-0.02050 0.05800 -0.05950 
0.09150 -0.04700 -0.06350 
0.08700 0.13050 -0.03700 
-0.08350 -0.02750 -0.03200 
-0.02100 0.18250 -0.06950 
0.02750 0.04050 -0.09750 
-0.03100 -0.06550 -0.20950 
0.17000 0.07950 -0.07700 
0.01100 0.12900 -0.13150 
-0.13050 -0.01100 0.02400 
0.08900 -0.01800 -0.28100 
0.10500 -0.02250 -0.01950 
0.01150 0.12450 -0.10350 
0.05050 0.10550 -0.09750 
0.13700 0.03550 -0.10300 
0.12400 -0.00500 -0.24600 
-0.09950 -0.14250 0.06350 
0.06850 0.13250 -0.11350 
0.06550 0.09050 -0.13200 
0.02650 -0.02600 -0.06850 
-0.05950 -0.07800 0.07350 
0.10350 0.07650 -0.22150 
-0.06500 0.08000 -0.19400 
0.01350 0.06950 -0.11600 
0.04650 0.12000 -0.12300 
0.06750 -0.02100 -0.05500 
0.03700 0.01950 -0.16950 
0.16000 0.04800 -0.08150 
0.19450 0.13750 -0.18100 
0.12500 0.11850 -0.19650 
0.12500 0.04600 -0.18950 
0.00550 -0.06150 -0.15350 
0.07300 0.15300 -0.01550 
0.05000 0.08350 -0.17250 
-0.05050 0.14400 0.02700 
0.10100 0.10550 -0.22950 
0.02350 0.05500 -0.00000 
0.03300 0.06750 -0.17000 
0.00100 0.09150 0.12700 
0.08500 0.04200 -0.15050 
0.15450 0.16350 -0.12750 
-0.03800 -0.03050 -0.13700 
0.13600 0.14750 0.02050 
0.07950 0.16100 -0.07750 
-0.04700 0.02300 -0.11350 
-0.01700 0.06550 -0.08050 
0.11900 0.07400 0.03000 
0.03100 0.04750 -0.10550 
0.05950 0.07500 -0.06500 
0.08300 0.08550 0.04500 
0.14000 0.14650 -0.01400 
0.08850 0.12350 0.04400 
-0.10050 -0.02150 -0.06800 
0.13600 0.02150 -0.08700 
0.01900 0.04900 -0.08400 
0.11600 0.03950 -0.22400 
0.07900 0.02100 -0.06700 
-0.03100 0.07650 -0.14350 
0.15300 0.08250 -0.05350 
-0.02300 0.06400 -0.28300 
0.12000 0.11200 -0.07950 
-0.07150 -0.12250 -0.00950 
0.07950 0.09250 -0.14850 
0.00800 0.02050 -0.09200 
0.12100 0.10900 0.00750 
0.02550 -0.08750 -0.00600 
0.06200 0.04950 -0.09450 
0.04750 0.08500 -0.05350 
-0.01800 -0.03700 -0.09850 
0.05250 0.13000 -0.22200 
-0.05500 0.05000 -0.04650 
0.03000 -0.02700 -0.07350 
-0.06200 0.08500 -0.23750 
0.11850 0.06000 -0.15250 
0.04900 0.03400 -0.15050 
0.09550 0.03500 0.01400 
0.12200 0.14100 0.08450 
0.06950 0.06550 -0.11100 
0.01300 -0.01700 -0.13950 
0.02300 0.03800 -0.07450 
0.05450 0.03900 -0.25400 
0.02400 0.13200 0.02950 
-0.19250 -0.05650 -0.02050 
0.04950 0.06950 -0.05950 
0.07550 0.01050 -0.16300 
-0.16000 0.00300 0.04000 
-0.00200 0.10400 -0.06700 
0.03700 0.14750 -0.06700 
0.01550 0.16000 -0.04450 
0.07400 0.03950 -0.00300 
0.12050 -0.00600 -0.19600 
-0.01500 0.04050 -0.23250 
0.05550 0.11900 -0.14900 
0.11000 0.13000 -0.13900 
-0.04550 0.02850 -0.03300 
0.04450 0.09600 -0.14450 
0.13100 0.03750 -0.08700 
0.12400 0.15450 0.02950 
0.15800 0.12150 0.03900 
0.06650 0.11800 -0.09800 
0.03600 0.01250 -0.16250 
0.05500 0.08650 -0.20800 
-0.03900 0.06100 -0.14300 
0.06050 0.05700 0.01950 
0.06050 0.00800 0.00650 
-0.01150 -0.02500 -0.07850 
0.10650 0.03450 -0.08650 
0.03250 0.08250 -0.16450 
-0.11600 0.15800 -0.01000 
0.04250 0.09400 -0.23200 
-0.11300 0.02200 0.08100 
0.04200 0.10700 -0.04650 
-0.01100 0.02350 -0.18850 
0.11800 0.03800 0.00700 
0.04150 0.07050 -0.10750 
0.01600 0.09900 -0.09150 
0.10150 0.04650 -0.17100 
0.09150 0.00100 -0.08850 
-0.03400 -0.05850 -0.05850 
-0.02600 -0.00150 0.05500 
-0.01450 0.14600 -0.01400 
0.06550 0.00350 -0.05500 
0.04300 0.11250 -0.03050 
0.04000 0.02600 -0.06500 
0.09100 0.05500 -0.10600 
0.07900 0.06050 -0.20650 
0.09950 0.07300 -0.21700 
0.04350 0.02900 0.00300 
0.07950 -0.04000 -0.05850 
0.06850 0.05200 -0.16350 
-0.02900 0.03650 -0.05850 
0.11950 0.11300 -0.06100 
0.01850 -0.00950 -0.02050 
0.02650 0.08850 -0.16400 
0.04200 0.05600 -0.14850 
0.14300 0.11250 -0.11750 
0.11900 0.08200 -0.12050 
0.03150 0.07950 -0.12550 
0.03350 0.09100 -0.08250 
0.01850 -0.04250 -0.05250 
-0.02200 0.06150 -0.16150 
0.10300 0.07200 0.00850 
-0.06600 0.13700 -0.01250 
0.09900 0.10700 -0.05850 
-0.07850 0.09150 -0.02350 
0.06950 0.07850 -0.16250 
-0.02200 0.16400 -0.08850 
-0.02450 -0.04500 -0.10850 
0.09100 -0.10550 -0.16150 
0.03300 -0.14250 0.13000 
0.10350 0.07450 -0.03050 
0.05100 0.10350 0.01250 
0.02700 0.11600 -0.16600 
-0.10600 0.19550 -0.00000 
0.10400 0.06900 -0.21300 
0.09900 -0.02100 -0.04100 
-0.05000 0.03300 -0.07650 
0.11550 0.08250 -0.01700 
0.15700 0.00800 -0.24700 
0.01150 0.07100 -0.07450 
0.13650 0.07850 0.05100 
0.00700 0.00850 0.06050 
-0.03250 0.08200 -0.03300 
-0.11750 0.06600 0.11000 
-0.08850 0.03000 -0.00500 
-0.02950 0.05950 -0.02200 
0.10600 0.06900 -0.24000 
0.03850 0.02050 -0.04500 
0.04250 0.01150 -0.06900 
-0.01900 0.04600 -0.03800 
0.09950 0.10850 -0.14050 
0.02450 0.12950 0.06150 
-0.00750 0.11050 -0.19000 
0.16150 0.07200 -0.05050 
0.05650 0.09750 -0.19450 
-0.16150 0.04200 0.07200 
-0.00950 0.09300 -0.00350 
0.11050 0.18750 -0.03100 
-0.07200 -0.06200 -0.10200 
0.02700 0.08100 -0.16850 
0.10700 0.00450 -0.00000 
-0.21350 -0.08500 0.15000 
0.03850 -0.00100 0.00100 
0.12700 -0.04150 -0.25400 
0.10800 0.09600 -0.17000 
0.01600 -0.04050 0.04350 
-0.02950 0.03450 -0.08500 
0.01250 0.02700 -0.11500 
0.03900 0.04800 -0.01400 
0.07950 0.15100 -0.07050 
0.01350 0.15000 -0.11050 
0.08350 0.01600 -0.10450 
0.09850 0.02250 -0.10650 
0.10100 0.02500 -0.24500 
0.04400 -0.00850 -0.11150 
0.10300 0.03700 -0.04750 
-0.02250 0.07550 -0.11650 
0.19100 0.08450 0.03450 
0.07700 0.03600 -0.00600 
0.18200 0.06400 -0.07750 
0.04700 -0.04500 -0.27650 
0.03300 0.04600 -0.08850 
0.05350 0.07500 -0.08600 
0.08000 0.00250 -0.08000 
0.04900 0.11750 -0.04850 
-0.02300 0.02200 -0.10000 
0.01850 -0.08450 -0.04950 
0.02100 0.00800 -0.11650 
0.03950 0.10800 -0.12700 
-0.00300 0.09250 -0.09300 
0.05850 0.12000 -0.17450 
0.02150 0.01550 -0.04300 
0.09600 -0.03700 -0.17350 
0.09750 0.08700 -0.09450 
-0.03000 -0.08750 -0.25600 
0.03500 0.11200 -0.08550 
0.16300 0.14600 -0.01000 
-0.00000 -0.00750 -0.06300 
0.10350 0.01400 -0.03100 
-0.03900 -0.10700 0.01450 
0.06650 0.09300 -0.14300 
0.12450 0.05550 0.05050 
0.14300 0.05600 -0.29450 
0.05850 0.12100 -0.10300 
0.03650 0.09000 -0.00100 
0.09150 0.08500 -0.06850 
-0.09250 0.04650 -0.03500 
0.07700 0.02900 -0.05950 
0.01900 0.02600 -0.12950 
0.01800 0.06400 -0.14350 
0.06150 -0.02150 -0.14300 
0.10900 0.03400 -0.08500 
0.03550 0.01500 -0.18550 
0.10350 0.15550 -0.12150 
0.01150 -0.12200 0.02550 
0.09600 0.03350 -0.11550 
0.06750 0.09300 -0.17600 
0.16150 0.05650 0.09500 
0.06050 -0.08800 -0.19050 
0.20050 -0.02100 -0.19250 
0.14000 0.08200 0.00750 
0.02800 0.08150 -0.19250 
0.17700 0.03750 -0.00600 
0.08850 0.03500 -0.12500 
0.04300 -0.04850 0.08950 
0.10700 0.02550 -0.12700 
0.04950 0.02500 -0.21750 
0.02250 0.05850 -0.10200 
-0.01250 -0.03650 -0.20500 
0.10100 0.06350 0.09750 
0.07650 0.01100 -0.14750 
-0.02550 0.06800 -0.08100 
0.13250 0.03150 0.03200 
0.09150 0.06450 -0.10800 
0.08000 0.11050 -0.12450 
-0.01250 -0.02400 -0.06400 
0.16600 0.12750 -0.03100 
0.00600 0.01750 -0.03850 
-0.08700 0.02400 0.02000 
0.15400 0.11350 -0.30700 
0.03850 0.05950 -0.06950 
-0.14400 0.05100 -0.10100 
-0.00400 0.06400 -0.20150 
0.09800 0.02750 -0.04400 
0.01600 0.12150 -0.13600 
0.03000 -0.02500 -0.04200 
0.02250 -0.04450 -0.11450 
0.02650 0.10950 0.00700 
0.06950 0.07350 -0.16000 
0.03600 -0.03300 -0.25650 
0.00100 0.20200 -0.22350 
0.07400 -0.00600 -0.01800 
-0.01150 -0.00450 -0.09900 
0.06600 0.04250 -0.10150 
0.04650 0.03400 -0.16900 
-0.01050 0.03750 -0.07550 
0.11400 0.03100 -0.00000 
-0.02050 0.02150 -0.01700 
0.12400 0.05600 -0.18350 
0.01600 0.09450 -0.01900 
0.09650 0.13950 -0.07950 
0.17700 0.11450 -0.06500 
-0.02000 0.00650 -0.08300 
0.00700 0.03350 0.07050 
0.14000 0.03850 -0.23450 
0.13050 -0.10950 -0.01450 
-0.05150 -0.08950 -0.01400 
0.01900 0.00100 -0.18650 
0.10850 0.12750 -0.09000 
0.05900 0.08500 -0.14300 
0.07050 0.14550 -0.15550 
0.01750 -0.04350 0.00350 
0.00700 -0.02050 -0.04350 
0.06050 -0.01200 -0.11950 
-0.00300 -0.05450 -0.01150 
0.01150 0.08900 -0.06900 
0.10900 0.03450 0.02850 
0.09350 0.08000 0.06900 
0.07500 0.07800 -0.10350 
0.11300 0.06600 -0.22900 
0.08250 0.04100 -0.05750 
0.11300 0.12150 0.09700 
0.05150 0.08150 -0.11000 
0.06000 0.21150 -0.09550 
-0.07600 0.01950 -0.07600 
0.07250 0.01200 -0.03750 
0.12000 0.03950 -0.00350 
0.12750 0.04900 0.04200 
0.05100 0.09050 -0.00000 
0.08800 0.12850 -0.00650 
-0.09700 -0.00300 -0.07950 
0.16500 0.08550 -0.10950 
0.08650 0.07400 0.10550 
0.08800 0.10600 -0.08800 
-0.01850 0.10750 -0.13200 
0.00800 -0.03500 -0.20800 
0.14700 0.19100 -0.12150 
0.08450 0.02800 -0.06400 
0.15100 -0.05500 -0.11650 
0.07700 -0.02250 -0.17350 
-0.12350 0.01700 0.01550 
0.03850 0.04800 -0.08550 
0.08650 0.08850 -0.05650 
-0.07700 0.18750 -0.03750 
0.01200 0.05600 0.07000 
0.19700 -0.00850 -0.05500 
-0.04750 0.01200 0.05550 
0.07550 -0.00600 -0.07100 
0.01650 0.19450 -0.12950 
0.20300 0.03050 -0.08500 
-0.02350 0.15300 0.03850 
-0.08650 0.07300 -0.20450 
0.01000 0.19300 0.09450 
0.12900 0.07850 -0.17750 
-0.02850 0.13600 -0.01400 
0.00800 0.11600 -0.07150 
0.11050 0.04800 -0.14250 
0.15400 0.10900 0.04950 
0.15000 0.11350 -0.09600 
-0.01550 0.02550 -0.13400 
0.01250 0.06000 -0.07300 
0.08950 0.07200 -0.07050 
0.08250 0.07150 -0.20150 
0.08300 -0.01800 -0.22050 
0.03900 0.05400 -0.08450 
0.02000 0.03400 -0.13950 
-0.01250 0.03050 -0.14350 
0.11100 0.07300 -0.17100 
0.03250 0.10200 -0.10400 
0.10000 0.05300 0.03150 
0.00200 0.06550 -0.00900 
0.01650 0.07500 0.12600 
0.09400 0.21200 -0.10850 
0.00600 0.11000 -0.13550 
-0.06700 0.12450 -0.10800 
0.09950 -0.00300 -0.21600 
0.20800 -0.01650 -0.17650 
0.09250 0.03750 -0.08100 
0.00400 -0.02750 -0.06950 
0.06000 0.09500 -0.05950 
0.03550 0.05650 0.02050 
0.05300 -0.00900 0.00500 
-0.09050 0.10650 -0.05650 
-0.04650 -0.00550 -0.11950 
0.13750 0.01800 -0.21500 
0.16550 0.08100 -0.17650 
-0.00200 0.12400 -0.20950 