# vtk DataFile Version 2.0 
Xm, Ym, Zm, Uvecs, timestep 10183 
ASCII 
 
DATASET POLYDATA POINTS 459 float 
  1.077  -4.106 -70.451 
  6.114   4.684 -75.565 
-10.719  -1.885 -72.339 
  1.759   6.939 -70.274 
 -0.869   4.268 -72.042 
  4.035   3.606 -70.785 
 -6.586   4.301 -73.451 
  3.402 -11.080 -70.968 
 -6.857   9.091 -75.159 
  0.145  -1.606 -70.393 
 -7.146   8.293 -71.715 
  6.967  -3.009 -70.167 
  7.380   3.881 -72.018 
 -5.492  10.626 -68.391 
  4.051   6.143 -70.471 
  3.545   6.907 -70.802 
 -1.650  -5.666 -67.069 
  3.426  -1.328 -71.611 
 -6.519   0.671 -66.314 
  8.683  -8.843 -63.516 
  1.579  -8.111 -71.578 
  4.781  11.137 -72.343 
  4.720  -6.264 -69.009 
  0.402  -8.036 -71.712 
  5.007   9.741 -67.463 
 -5.273   5.399 -73.237 
  1.769   2.867 -68.459 
  1.051  -7.672 -71.789 
 -8.607  -4.676 -70.103 
  0.256   5.197 -69.117 
 -2.325   6.370 -71.679 
 -1.430  -7.732 -68.819 
  5.833  -0.060 -67.483 
 -4.827   7.569 -67.355 
  8.197  -0.633 -72.160 
  1.275  -1.740 -68.151 
 -6.540  -6.032 -70.870 
 -9.256   5.398 -69.160 
  4.925   3.240 -67.293 
 -3.452   5.502 -64.399 
 -3.526  -7.188 -70.325 
 -6.639   6.569 -70.503 
 -4.803  -0.752 -67.267 
  7.425   0.597 -70.136 
  3.049   6.669 -69.980 
-12.361  -5.953 -70.775 
  0.346  -4.952 -72.394 
  0.042  -4.277 -69.282 
 15.795   6.897 -72.191 
  2.925  -4.200 -72.091 
  0.085   8.281 -66.144 
  9.660  -7.105 -72.928 
 -7.133   4.702 -73.431 
  1.039  -7.628 -67.655 
-11.401   9.043 -67.051 
-12.153   7.824 -73.993 
  3.117   4.620 -71.957 
-10.595  -4.655 -73.564 
 -5.888 -12.578 -66.243 
  0.211   9.675 -70.790 
  6.361  10.832 -70.060 
  3.535  -7.011 -66.760 
  7.890  -4.527 -67.454 
 -1.297  -8.880 -67.607 
 -1.575  -2.502 -71.532 
 -0.809   8.216 -64.713 
 -9.892  -1.527 -67.712 
 -5.320  -4.869 -68.466 
  0.984 -10.897 -69.250 
 12.074   2.184 -63.401 
  8.880 -12.470 -68.596 
 -1.926   3.739 -64.380 
 10.482   9.680 -68.951 
  9.765   5.793 -71.489 
 11.589  11.163 -69.638 
  1.812 -10.932 -67.888 
  1.889  -0.599 -66.327 
  3.021   7.591 -64.833 
 12.291   8.480 -72.096 
 -2.725  -3.958 -69.257 
 10.974   4.277 -69.617 
 -6.934  -2.670 -64.602 
  6.386  -5.458 -66.731 
  4.255  -5.200 -68.292 
 -2.647  -1.070 -67.250 
 -5.872  -6.840 -62.415 
 -5.611  -1.859 -68.783 
  0.724   8.094 -65.919 
-14.652  -3.633 -68.953 
  3.334  -4.781 -68.838 
 -1.805  -6.418 -67.917 
 -6.422  10.450 -63.668 
  4.350   1.156 -71.297 
 13.273  -3.992 -69.709 
 -0.241 -12.607 -69.144 
 11.965   1.188 -66.091 
 -3.181  -9.895 -63.651 
  2.893  -7.447 -71.565 
-10.944  -3.115 -66.166 
 -5.199   6.920 -72.817 
 13.073   2.403 -74.897 
  1.478   2.147 -69.876 
  5.311   8.829 -70.780 
 -9.883  12.293 -72.335 
 -0.627   4.710 -62.969 
 13.965  -3.260 -69.404 
-11.544   6.133 -68.354 
  2.497   2.782 -70.791 
 -7.220  -7.906 -62.382 
 -2.553  10.749 -72.369 
  3.978 -10.611 -68.434 
  1.494   3.244 -68.061 
 -1.934   3.058 -64.136 
-15.258  -1.667 -75.066 
 -2.360   9.109 -74.287 
 -9.401   8.469 -68.799 
 -5.116   6.614 -68.376 
-10.093  -9.712 -68.771 
 -0.285   5.934 -69.729 
 -3.450   3.973 -65.095 
 -5.694  -0.730 -66.113 
 -2.841   3.545 -75.576 
 -0.474  -9.792 -62.534 
 -6.360   3.742 -61.948 
  6.939   3.636 -63.311 
-11.494   1.865 -63.651 
 -7.233  12.259 -71.882 
 -0.165   3.445 -67.727 
 10.919   6.852 -70.899 
  4.571   2.244 -61.370 
  0.150  -2.659 -64.267 
-11.629   8.087 -67.972 
 13.055  -7.273 -71.039 
 -9.504 -11.247 -71.532 
  8.734   1.470 -64.304 
 -4.285   3.651 -63.678 
 -7.739  -1.629 -76.506 
  6.464  -0.526 -66.195 
  7.558  -0.203 -66.752 
 -5.326   8.688 -61.347 
 -5.720 -11.236 -63.115 
 -7.319   4.386 -67.180 
 -5.809   9.212 -74.255 
 -1.709  -8.323 -68.212 
 -5.238   2.485 -77.084 
  3.498   9.671 -64.905 
 -7.181 -10.650 -71.092 
  7.750   6.150 -69.973 
  3.101  -8.348 -64.430 
 -7.265   7.559 -59.766 
 -9.294  -2.292 -63.839 
 -9.950  -4.168 -63.007 
  6.534  -6.085 -63.595 
 -6.784  11.145 -63.470 
 -0.621 -11.879 -69.421 
  8.387   5.788 -67.630 
 -3.132  -7.714 -70.276 
 15.291  -4.289 -70.216 
 -3.349   1.162 -62.538 
-12.468   5.484 -67.549 
  2.301   3.585 -63.481 
  2.277  -6.685 -65.332 
  7.633   3.474 -63.803 
  2.601   2.950 -68.435 
 12.293   2.642 -74.179 
  5.728  -3.162 -62.889 
  7.809   5.473 -64.726 
 10.946   9.317 -71.687 
 -8.204   1.995 -62.456 
 -0.733   1.446 -62.174 
-13.651   6.431 -75.023 
 -9.151   9.646 -67.412 
  9.917   8.530 -66.520 
  8.759  -7.769 -71.804 
  7.511   8.916 -66.089 
  1.098 -12.037 -66.084 
 -1.607  -5.422 -70.799 
  7.147   6.883 -71.283 
 -8.512   9.260 -65.051 
  3.955   7.044 -65.896 
 -4.243   9.916 -64.802 
  5.278   0.787 -63.114 
 -4.861   3.466 -75.431 
  9.811  -2.506 -64.674 
  6.797  -6.391 -72.922 
  7.418   0.703 -66.420 
 -9.205  -2.894 -68.820 
 -9.541   7.963 -65.023 
-12.651  11.040 -76.814 
-13.142   5.803 -68.730 
-11.259   7.463 -70.070 
 -9.952   5.497 -62.151 
 -6.156  -3.412 -70.315 
  5.935   2.755 -62.709 
  1.514  -1.597 -65.648 
 13.085  -5.349 -72.120 
 -1.650  -9.653 -64.987 
 12.909  12.804 -67.975 
 -1.810 -10.335 -70.037 
 -0.239   5.955 -62.502 
 -7.563  11.126 -67.458 
  8.929  -3.626 -63.437 
-12.301  12.538 -69.483 
  6.882  -8.901 -65.707 
  4.893  -4.494 -64.227 
 13.672  -5.745 -70.900 
-11.971  10.313 -65.758 
 -3.146  -5.088 -63.125 
  3.575 -11.338 -65.847 
  6.607  10.084 -68.623 
-10.980   6.838 -66.020 
-10.195   0.933 -63.880 
 12.764  -9.797 -73.621 
 -9.470   0.609 -74.361 
  4.441   5.061 -64.472 
-10.033  -8.644 -68.162 
  1.784   7.942 -75.107 
  7.976   8.799 -64.989 
  1.051   9.614 -63.523 
-11.404  -5.305 -70.936 
-10.906  -7.761 -69.329 
-13.469  11.386 -69.062 
  1.398   9.851 -75.424 
 -3.524   2.739 -65.594 
 -6.383  -4.875 -63.993 
  2.561  11.701 -69.352 
  7.295  -8.149 -64.191 
 11.469  -0.117 -73.355 
 13.389   1.321 -65.735 
  2.324   5.462 -69.975 
-10.154  -1.121 -63.907 
  8.335  -2.278 -69.446 
  4.226 -10.177 -73.581 
 12.946  10.915 -67.198 
  8.435  -5.495 -65.688 
 -3.917  -7.791 -63.304 
  3.122  -4.982 -75.227 
 -2.235  -0.629 -67.797 
  1.422  -0.579 -63.196 
 11.013   3.332 -66.151 
-14.113  -5.273 -70.209 
-11.854   3.180 -64.097 
 13.200 -10.000 -68.627 
-11.017  -7.780 -74.686 
 -6.768  -4.793 -60.933 
 16.604 -11.356 -71.814 
 -3.750  -0.563 -73.448 
 13.596  10.797 -72.988 
  8.074  -0.671 -66.536 
  6.075  -1.773 -70.273 
 -4.867 -10.222 -72.387 
 10.502   7.441 -65.493 
  8.021 -11.720 -69.087 
 10.088  -0.053 -67.335 
 -8.351  -8.631 -69.817 
  8.837   9.623 -65.379 
 10.467   3.071 -71.542 
 -9.602  -4.927 -73.117 
 11.712  -3.478 -68.156 
  0.870   4.839 -73.050 
  3.267   9.309 -69.144 
 -9.145   1.611 -61.941 
 10.972  -4.163 -66.406 
 -0.576  -4.846 -67.143 
  1.395   6.675 -64.635 
 -4.913  -9.222 -72.011 
  3.859  10.704 -63.433 
 13.072   8.554 -67.512 
  3.197  -0.183 -64.672 
  7.015   2.800 -69.009 
 -7.896  -1.173 -57.665 
 -5.625 -12.308 -71.615 
  2.400  -4.251 -65.389 
  0.624   6.480 -71.160 
  2.561 -12.078 -76.799 
  1.805   5.451 -72.719 
  9.217   3.591 -75.482 
  5.910  -4.687 -72.382 
  1.682 -10.337 -61.992 
  3.568  -9.820 -74.060 
-12.387 -11.579 -71.306 
 -0.720   1.352 -72.133 
 -7.654   8.137 -69.993 
 -4.658   7.540 -64.453 
 -8.372  -2.602 -73.912 
  9.293 -10.947 -69.008 
  1.367   6.443 -70.625 
 -2.364 -11.846 -70.021 
 -2.099   1.091 -60.526 
 -2.671  -8.773 -62.502 
 -6.666  -3.615 -62.001 
 -8.316   3.563 -76.905 
 -7.555   0.055 -66.978 
  8.078  -6.947 -66.006 
 -8.412  -3.813 -67.813 
 10.621 -10.500 -69.436 
 -7.161  -2.932 -68.351 
 -8.419   9.186 -71.720 
 -4.544  -0.234 -65.900 
 -2.149  -0.154 -59.751 
 12.874  -6.357 -64.828 
-13.537  -4.281 -66.201 
-12.364 -11.762 -66.461 
  2.555   0.165 -61.731 
 -1.057  -2.236 -65.112 
 -6.721  -3.692 -65.037 
-12.569 -10.756 -70.155 
 10.529  -1.910 -65.335 
  2.668   9.543 -66.935 
  7.882   9.832 -61.836 
  2.875  -2.106 -73.851 
  7.262   1.530 -69.224 
-11.018  -4.652 -61.285 
  7.075   1.039 -74.239 
-11.633  11.090 -69.327 
 -2.680   6.051 -66.730 
 -4.705 -11.079 -62.728 
 -5.029   8.101 -64.657 
  7.495  -2.236 -64.293 
 -9.598  -6.689 -63.007 
-11.495 -10.947 -64.976 
-12.041  -7.698 -63.212 
 -7.962  12.079 -74.282 
  3.501  -1.079 -66.554 
 -6.097  -8.003 -59.902 
 -5.258 -10.935 -67.829 
  0.121  -2.677 -70.319 
  2.453  -6.226 -67.542 
-16.095  10.705 -73.315 
 -0.368 -11.345 -68.936 
  7.524   0.454 -57.667 
 -9.015   8.032 -73.986 
 13.493   3.059 -67.075 
  1.761   9.668 -71.749 
  6.532  -7.094 -74.158 
  1.947  11.999 -71.469 
 13.182  -4.781 -66.219 
  1.460  -6.564 -64.002 
 13.308  -8.248 -63.752 
 -8.552   6.170 -60.723 
 -0.337  -0.539 -67.330 
 -4.540  -6.659 -62.435 
  9.864   4.171 -66.605 
 13.334   9.378 -69.267 
 -4.532   6.876 -60.691 
 -0.819   7.822 -59.333 
-13.323 -12.747 -65.270 
 11.080  -6.199 -67.544 
 13.924  -8.610 -71.612 
  1.000   2.157 -64.576 
 11.799  -3.115 -63.807 
 16.972   7.854 -72.881 
-10.442  -7.162 -61.978 
 -2.575   3.676 -68.465 
 -5.800  -8.872 -62.258 
-10.973  11.532 -66.581 
 -0.257  -1.458 -74.475 
 -5.047   0.065 -59.820 
  6.487 -10.164 -72.404 
 -5.585  11.982 -69.951 
-10.197 -12.234 -72.558 
 -2.596 -10.694 -71.623 
  7.292 -11.306 -64.078 
  0.758  -8.531 -55.928 
 -3.340   5.963 -66.517 
-11.038  10.595 -60.009 
 12.798  11.113 -64.118 
 15.177  -5.321 -68.217 
 -6.351  11.613 -61.789 
 11.218   0.501 -60.755 
 -7.521   2.490 -65.406 
  8.905  -8.332 -62.864 
  7.001   0.828 -65.233 
  6.808  -9.664 -70.433 
 10.500  -8.443 -64.236 
 -8.284  -9.585 -61.173 
-14.061  -3.640 -66.364 
 16.883  -2.436 -67.299 
 -4.582  -9.843 -62.515 
 14.220   7.403 -73.781 
 11.461   1.405 -67.624 
 11.591   7.016 -60.407 
 13.289   1.238 -61.907 
 12.078 -10.394 -74.002 
  4.516   6.957 -72.807 
  8.264 -12.424 -73.668 
 11.806  -2.126 -66.426 
 -9.901   8.989 -69.917 
-13.012  -1.986 -63.817 
  7.364   7.660 -71.894 
-13.679  10.813 -69.873 
 -7.382  -6.270 -68.237 
 -1.184  -0.835 -73.647 
 11.550 -12.010 -61.110 
  1.350  11.970 -65.707 
 13.768 -13.183 -66.159 
 -1.580   7.930 -61.545 
 12.403   7.592 -63.285 
 10.893 -12.249 -70.448 
  9.043  -9.445 -69.696 
 10.151   8.228 -71.442 
 -1.194  -3.290 -73.068 
  2.040  -5.371 -63.188 
  3.918   4.121 -64.623 
 -6.391   6.306 -69.124 
 -7.274   5.534 -60.487 
-12.695   0.392 -63.172 
 -1.778   7.723 -69.641 
 12.808   0.088 -63.401 
 -0.501   4.000 -64.331 
 -2.839 -10.990 -70.743 
 14.410  -3.556 -63.587 
  4.478  -0.162 -59.704 
 -8.691  -8.625 -68.994 
  3.130  -3.635 -74.929 
 10.890 -10.012 -69.531 
  8.485  -2.539 -64.029 
  9.107  -3.957 -68.103 
 -5.255   8.977 -74.605 
  9.570  -8.538 -69.712 
 -6.072   1.494 -65.966 
 -8.939  12.499 -64.019 
 -5.851 -11.607 -74.354 
  6.354  11.929 -61.135 
 16.415 -11.325 -65.614 
 -5.971   3.743 -70.443 
-12.610 -10.794 -65.258 
 -3.244 -11.971 -69.039 
  9.284   6.589 -71.983 
 -1.466   6.592 -74.397 
 16.726 -13.320 -69.698 
 12.231 -12.005 -73.688 
  4.356  -0.577 -74.295 
 -4.310  -9.586 -71.818 
 12.025 -10.925 -59.905 
  4.466  -9.502 -66.998 
-10.722  -8.532 -55.841 
 -7.951  -1.112 -66.581 
  1.086   2.623 -64.553 
  2.210   4.254 -65.899 
  3.757  -7.501 -72.753 
 -3.266   8.326 -64.749 
 10.762   3.449 -70.026 
  4.390  -9.252 -61.627 
  9.593   6.393 -75.262 
  7.082  -5.659 -70.679 
 -2.422  -1.135 -64.977 
  6.551  -4.861 -61.936 
  5.993 -11.305 -77.597 
  3.146  -2.446 -61.007 
  8.292 -13.066 -65.138 
-12.559 -12.272 -69.663 
  8.652 -12.215 -70.336 
  5.077   2.076 -67.716 
  4.813   7.832 -65.218 
  7.661  -8.404 -72.485 
 -2.672   9.926 -71.781 
 -8.936  -1.331 -74.594 
  0.879   2.556 -71.364 

 VERTICES 459 918 
1 0 
1 1 
1 2 
1 3 
1 4 
1 5 
1 6 
1 7 
1 8 
1 9 
1 10 
1 11 
1 12 
1 13 
1 14 
1 15 
1 16 
1 17 
1 18 
1 19 
1 20 
1 21 
1 22 
1 23 
1 24 
1 25 
1 26 
1 27 
1 28 
1 29 
1 30 
1 31 
1 32 
1 33 
1 34 
1 35 
1 36 
1 37 
1 38 
1 39 
1 40 
1 41 
1 42 
1 43 
1 44 
1 45 
1 46 
1 47 
1 48 
1 49 
1 50 
1 51 
1 52 
1 53 
1 54 
1 55 
1 56 
1 57 
1 58 
1 59 
1 60 
1 61 
1 62 
1 63 
1 64 
1 65 
1 66 
1 67 
1 68 
1 69 
1 70 
1 71 
1 72 
1 73 
1 74 
1 75 
1 76 
1 77 
1 78 
1 79 
1 80 
1 81 
1 82 
1 83 
1 84 
1 85 
1 86 
1 87 
1 88 
1 89 
1 90 
1 91 
1 92 
1 93 
1 94 
1 95 
1 96 
1 97 
1 98 
1 99 
1 100 
1 101 
1 102 
1 103 
1 104 
1 105 
1 106 
1 107 
1 108 
1 109 
1 110 
1 111 
1 112 
1 113 
1 114 
1 115 
1 116 
1 117 
1 118 
1 119 
1 120 
1 121 
1 122 
1 123 
1 124 
1 125 
1 126 
1 127 
1 128 
1 129 
1 130 
1 131 
1 132 
1 133 
1 134 
1 135 
1 136 
1 137 
1 138 
1 139 
1 140 
1 141 
1 142 
1 143 
1 144 
1 145 
1 146 
1 147 
1 148 
1 149 
1 150 
1 151 
1 152 
1 153 
1 154 
1 155 
1 156 
1 157 
1 158 
1 159 
1 160 
1 161 
1 162 
1 163 
1 164 
1 165 
1 166 
1 167 
1 168 
1 169 
1 170 
1 171 
1 172 
1 173 
1 174 
1 175 
1 176 
1 177 
1 178 
1 179 
1 180 
1 181 
1 182 
1 183 
1 184 
1 185 
1 186 
1 187 
1 188 
1 189 
1 190 
1 191 
1 192 
1 193 
1 194 
1 195 
1 196 
1 197 
1 198 
1 199 
1 200 
1 201 
1 202 
1 203 
1 204 
1 205 
1 206 
1 207 
1 208 
1 209 
1 210 
1 211 
1 212 
1 213 
1 214 
1 215 
1 216 
1 217 
1 218 
1 219 
1 220 
1 221 
1 222 
1 223 
1 224 
1 225 
1 226 
1 227 
1 228 
1 229 
1 230 
1 231 
1 232 
1 233 
1 234 
1 235 
1 236 
1 237 
1 238 
1 239 
1 240 
1 241 
1 242 
1 243 
1 244 
1 245 
1 246 
1 247 
1 248 
1 249 
1 250 
1 251 
1 252 
1 253 
1 254 
1 255 
1 256 
1 257 
1 258 
1 259 
1 260 
1 261 
1 262 
1 263 
1 264 
1 265 
1 266 
1 267 
1 268 
1 269 
1 270 
1 271 
1 272 
1 273 
1 274 
1 275 
1 276 
1 277 
1 278 
1 279 
1 280 
1 281 
1 282 
1 283 
1 284 
1 285 
1 286 
1 287 
1 288 
1 289 
1 290 
1 291 
1 292 
1 293 
1 294 
1 295 
1 296 
1 297 
1 298 
1 299 
1 300 
1 301 
1 302 
1 303 
1 304 
1 305 
1 306 
1 307 
1 308 
1 309 
1 310 
1 311 
1 312 
1 313 
1 314 
1 315 
1 316 
1 317 
1 318 
1 319 
1 320 
1 321 
1 322 
1 323 
1 324 
1 325 
1 326 
1 327 
1 328 
1 329 
1 330 
1 331 
1 332 
1 333 
1 334 
1 335 
1 336 
1 337 
1 338 
1 339 
1 340 
1 341 
1 342 
1 343 
1 344 
1 345 
1 346 
1 347 
1 348 
1 349 
1 350 
1 351 
1 352 
1 353 
1 354 
1 355 
1 356 
1 357 
1 358 
1 359 
1 360 
1 361 
1 362 
1 363 
1 364 
1 365 
1 366 
1 367 
1 368 
1 369 
1 370 
1 371 
1 372 
1 373 
1 374 
1 375 
1 376 
1 377 
1 378 
1 379 
1 380 
1 381 
1 382 
1 383 
1 384 
1 385 
1 386 
1 387 
1 388 
1 389 
1 390 
1 391 
1 392 
1 393 
1 394 
1 395 
1 396 
1 397 
1 398 
1 399 
1 400 
1 401 
1 402 
1 403 
1 404 
1 405 
1 406 
1 407 
1 408 
1 409 
1 410 
1 411 
1 412 
1 413 
1 414 
1 415 
1 416 
1 417 
1 418 
1 419 
1 420 
1 421 
1 422 
1 423 
1 424 
1 425 
1 426 
1 427 
1 428 
1 429 
1 430 
1 431 
1 432 
1 433 
1 434 
1 435 
1 436 
1 437 
1 438 
1 439 
1 440 
1 441 
1 442 
1 443 
1 444 
1 445 
1 446 
1 447 
1 448 
1 449 
1 450 
1 451 
1 452 
1 453 
1 454 
1 455 
1 456 
1 457 
1 458 
POINT_DATA 459 
SCALARS MeanU double 1 
LOOKUP_TABLE default
0.15736 
0.20503 
0.19540 
0.09410 
0.14390 
0.05221 
0.13278 
0.08408 
0.16185 
0.16376 
0.16776 
0.25004 
0.08610 
0.14220 
0.05052 
0.05835 
0.21336 
0.21456 
0.19190 
0.16125 
0.13513 
0.14850 
0.17872 
0.12715 
0.09159 
0.15087 
0.10978 
0.14361 
0.17030 
0.05977 
0.09188 
0.13307 
0.08322 
0.07916 
0.10324 
0.21583 
0.18399 
0.04515 
0.09063 
0.04212 
0.13931 
0.11246 
0.20245 
0.08460 
0.08644 
0.11687 
0.15711 
0.12550 
0.32283 
0.18645 
0.06092 
0.09823 
0.12603 
0.21499 
0.19309 
0.19878 
0.14956 
0.13548 
0.20715 
0.07615 
0.09650 
0.19903 
0.12430 
0.12718 
0.21347 
0.12214 
0.16535 
0.11593 
0.12434 
0.19473 
0.04554 
0.07731 
0.11520 
0.19295 
0.21354 
0.18131 
0.16800 
0.14985 
0.15174 
0.16045 
0.10998 
0.16712 
0.15158 
0.18511 
0.28912 
0.13515 
0.22569 
0.07828 
0.14458 
0.22078 
0.08343 
0.16013 
0.19136 
0.17096 
0.12107 
0.11142 
0.11614 
0.27636 
0.13508 
0.20288 
0.23637 
0.19134 
0.14086 
0.09799 
0.07798 
0.14756 
0.12672 
0.12153 
0.16756 
0.12775 
0.12005 
0.10200 
0.12750 
0.31239 
0.16069 
0.12554 
0.22324 
0.15408 
0.09873 
0.15144 
0.22000 
0.17458 
0.09822 
0.11055 
0.14760 
0.12712 
0.15315 
0.15263 
0.18057 
0.09337 
0.15418 
0.20610 
0.18620 
0.18236 
0.05898 
0.07140 
0.12056 
0.18991 
0.21476 
0.18515 
0.18301 
0.17760 
0.13886 
0.14424 
0.15162 
0.06466 
0.16093 
0.18138 
0.15026 
0.08161 
0.16885 
0.04380 
0.06521 
0.11882 
0.11607 
0.06505 
0.07970 
0.12971 
0.04517 
0.12655 
0.16069 
0.23902 
0.13582 
0.12183 
0.23153 
0.23076 
0.15988 
0.14096 
0.11263 
0.07704 
0.10186 
0.11467 
0.02656 
0.08323 
0.12709 
0.21806 
0.19214 
0.07128 
0.13821 
0.10323 
0.18800 
0.09942 
0.18098 
0.27248 
0.05617 
0.12642 
0.12479 
0.11774 
0.16035 
0.13314 
0.13337 
0.12908 
0.10835 
0.08353 
0.09733 
0.18121 
0.05821 
0.15719 
0.10267 
0.05304 
0.11587 
0.20727 
0.20245 
0.14525 
0.20243 
0.17645 
0.16629 
0.19247 
0.16100 
0.08195 
0.10834 
0.14174 
0.06061 
0.12208 
0.15358 
0.17768 
0.11999 
0.11948 
0.14137 
0.12378 
0.13098 
0.18996 
0.14121 
0.19978 
0.18093 
0.19706 
0.13780 
0.30184 
0.15548 
0.19868 
0.18028 
0.18589 
0.12035 
0.17789 
0.12919 
0.22859 
0.24984 
0.20012 
0.09689 
0.16469 
0.07802 
0.10739 
0.07593 
0.14916 
0.18216 
0.15903 
0.25418 
0.10622 
0.23385 
0.17796 
0.20146 
0.12433 
0.07513 
0.10936 
0.15697 
0.09258 
0.11829 
0.09453 
0.22740 
0.15075 
0.11761 
0.09121 
0.25593 
0.14393 
0.13025 
0.15906 
0.12651 
0.22227 
0.09909 
0.04891 
0.22984 
0.14604 
0.18981 
0.13922 
0.11805 
0.10883 
0.14291 
0.16340 
0.08661 
0.12095 
0.12058 
0.26565 
0.05993 
0.08211 
0.08807 
0.08045 
0.12607 
0.08866 
0.13286 
0.22824 
0.24131 
0.13991 
0.17221 
0.06800 
0.12790 
0.12057 
0.13297 
0.16509 
0.23640 
0.07083 
0.18776 
0.24854 
0.06881 
0.10804 
0.13364 
0.16260 
0.17035 
0.13397 
0.18814 
0.13674 
0.14344 
0.11811 
0.08846 
0.23633 
0.19484 
0.10683 
0.12021 
0.06066 
0.29005 
0.18609 
0.11112 
0.07344 
0.11059 
0.11259 
0.24432 
0.23776 
0.21378 
0.16654 
0.19519 
0.20497 
0.24484 
0.13465 
0.18973 
0.04851 
0.18029 
0.17860 
0.28513 
0.30487 
0.09030 
0.16381 
0.21466 
0.07181 
0.12087 
0.07642 
0.13528 
0.11847 
0.18264 
0.17180 
0.03493 
0.11778 
0.19725 
0.29364 
0.17699 
0.17105 
0.14305 
0.05979 
0.35038 
0.17025 
0.10918 
0.20542 
0.11623 
0.15694 
0.06638 
0.15432 
0.15087 
0.12400 
0.24043 
0.24060 
0.20872 
0.20866 
0.20948 
0.11977 
0.14576 
0.13928 
0.05636 
0.15303 
0.16064 
0.09216 
0.07272 
0.20447 
0.12236 
0.12447 
0.24017 
0.07386 
0.27831 
0.13834 
0.12565 
0.19379 
0.17131 
0.14434 
0.24563 
0.11196 
0.33098 
0.17583 
0.16429 
0.07515 
0.12934 
0.14647 
0.08303 
0.03136 
0.14291 
0.13902 
0.18796 
0.05249 
0.14614 
0.09218 
0.28150 
0.10654 
0.24366 
0.23075 
0.09836 
0.18794 
0.17077 
0.11950 
0.15406 
0.09542 
0.29001 
0.20012 
0.13813 
0.05555 
0.28928 
0.08129 
0.04177 
0.07279 
0.07394 
0.15338 
0.07855 
0.22420 
0.23175 
0.05075 
0.07117 
0.06103 
0.27721 
0.21480 
0.04003 
0.12391 
0.19733 
0.12114 
0.07281 
0.12337 
0.23622 
0.12019 
0.11001 
0.04572 
0.27621 
0.17485 
0.09454 
0.10855 
0.11687 
0.14472 
0.11058 
0.11554 
0.07753 
0.09410 
0.10721 
0.16178 
0.14289 
0.09199 
0.19321 

 VECTORS Umean float 
-0.02650 0.04950 -0.14700 
0.13150 0.09350 -0.12650 
0.02200 0.17950 0.07400 
-0.02200 -0.00950 -0.09100 
0.07450 0.01650 -0.12200 
0.00700 -0.03400 -0.03900 
0.06900 0.06200 -0.09500 
0.01800 0.06100 -0.05500 
0.11550 0.03450 -0.10800 
0.03500 0.14050 -0.07650 
-0.01600 0.04250 -0.16150 
0.02950 0.11700 -0.21900 
-0.01150 0.01500 -0.08400 
-0.12100 0.03200 -0.06750 
0.01400 -0.03650 -0.03200 
-0.03050 -0.04300 -0.02500 
-0.08150 0.12500 -0.15250 
0.12400 0.01450 -0.17450 
0.09400 0.16450 -0.03050 
-0.16100 -0.00300 0.00850 
0.10700 0.07300 -0.03850 
-0.05700 -0.11850 0.06900 
-0.00450 -0.06350 -0.16700 
0.08950 0.09000 -0.00750 
-0.06600 -0.03850 0.05050 
0.12600 0.07500 -0.03550 
0.08400 -0.00500 -0.07050 
0.11450 0.08300 -0.02500 
0.05100 0.15100 -0.06000 
0.01950 0.00050 -0.05650 
0.02950 0.03050 -0.08150 
0.10550 0.06050 -0.05400 
0.00200 0.03150 -0.07700 
0.04800 0.04350 -0.04550 
0.00550 -0.00450 -0.10300 
0.04550 0.10500 -0.18300 
0.10500 0.10250 -0.11100 
0.03550 0.02700 -0.00700 
-0.00150 0.07350 -0.05300 
0.02050 0.02950 -0.02200 
0.13050 0.04400 -0.02100 
0.06000 0.06850 -0.06600 
0.13850 0.09200 -0.11550 
0.00400 -0.05150 -0.06700 
-0.02000 -0.03900 -0.07450 
0.05100 0.08900 -0.05600 
0.07250 0.05400 -0.12850 
-0.01150 0.06700 -0.10550 
0.13700 0.11900 -0.26700 
0.01750 0.03650 -0.18200 
0.00650 0.05700 0.02050 
0.05900 0.03750 -0.06900 
0.10200 0.04600 -0.05800 
-0.03350 0.05900 -0.20400 
0.03000 0.16150 0.10150 
0.04300 0.19150 -0.03150 
0.04450 -0.07500 -0.12150 
0.11250 0.05700 0.04950 
0.16550 0.05850 0.11000 
-0.05450 0.05250 -0.00850 
-0.02650 -0.08950 -0.02450 
0.08250 -0.05200 -0.17350 
0.04150 -0.03750 -0.11100 
0.07000 0.07150 0.07850 
0.07850 0.07200 -0.18500 
0.05050 0.09750 0.05350 
0.04700 0.13050 -0.09000 
0.05850 0.03700 -0.09300 
0.08450 -0.05600 -0.07200 
0.00900 0.00300 -0.19450 
-0.01450 0.04200 -0.01000 
0.06300 0.00850 -0.04400 
0.07300 -0.05700 -0.06850 
0.06250 -0.13350 -0.12450 
-0.12800 0.05450 -0.16200 
0.17650 0.02150 -0.03550 
-0.07650 -0.00450 -0.14950 
0.07600 0.12650 -0.02600 
0.07800 0.00650 -0.13000 
0.07200 0.01050 -0.14300 
0.00450 0.03400 -0.10450 
0.01350 0.06700 -0.15250 
0.11300 -0.02250 -0.09850 
0.03950 -0.02200 -0.17950 
-0.01800 0.13600 -0.25450 
-0.11100 0.04300 -0.06400 
0.08750 0.13650 -0.15700 
0.00150 0.07800 0.00650 
0.10450 0.09800 -0.01950 
0.07700 -0.01950 -0.20600 
-0.01950 0.08050 0.01000 
0.04150 0.15450 -0.00700 
0.07300 -0.08150 -0.15700 
0.05100 -0.05100 -0.15500 
0.10950 0.02350 0.04600 
-0.00700 -0.01250 -0.11050 
-0.10550 -0.04250 0.02350 
0.18200 -0.02000 -0.20700 
0.03450 0.05700 -0.11750 
0.15300 0.13300 -0.00800 
0.02650 -0.05000 -0.22950 
0.13200 -0.03100 -0.13500 
-0.11300 -0.07600 0.03600 
0.00700 0.04550 -0.08650 
0.06750 0.00900 -0.03800 
0.00400 -0.07750 -0.12550 
-0.00400 0.12050 0.03900 
0.04200 -0.04450 -0.10500 
-0.04050 -0.02600 -0.16050 
-0.11200 0.06100 0.00750 
0.10000 0.06250 0.02250 
0.06550 -0.00550 -0.07800 
0.11750 -0.00100 0.04950 
0.23800 0.13300 -0.15250 
-0.02900 0.08300 -0.13450 
0.04700 -0.07900 0.08550 
0.04250 0.20850 -0.06750 
0.07650 0.07750 -0.10900 
0.03100 0.02250 -0.09100 
0.10000 0.08550 0.07500 
0.04950 0.13250 -0.16850 
0.05250 0.05250 -0.15800 
-0.03650 -0.03300 -0.08500 
0.07700 0.07650 0.02100 
-0.01450 0.12050 -0.08400 
-0.02900 0.04700 -0.11450 
-0.12550 0.05900 -0.06500 
0.14900 0.03200 -0.00850 
0.10150 -0.05200 -0.14000 
0.00150 0.08550 -0.03750 
-0.03250 -0.00800 -0.15050 
0.05500 0.05450 0.19100 
-0.06050 -0.10550 -0.14100 
0.13300 0.06500 0.10650 
0.04600 0.01550 -0.03350 
0.00800 -0.01650 0.06900 
0.02250 0.08450 -0.08300 
0.06350 0.03250 -0.17600 
0.08950 0.08950 -0.17350 
0.10350 0.11200 0.10500 
-0.07300 -0.13800 0.09550 
0.04150 0.17250 -0.00800 
0.00350 0.11550 -0.07700 
0.12400 0.03650 0.06400 
-0.03500 0.10800 -0.10050 
0.05550 -0.00350 0.03300 
0.13800 0.05000 0.06600 
0.12150 -0.01350 -0.13400 
-0.11500 0.07250 -0.06400 
-0.00950 0.07550 0.02950 
-0.05000 0.00950 -0.16100 
0.02750 0.00250 -0.03400 
0.00550 0.04150 -0.05000 
0.03350 0.11100 -0.02600 
0.09850 0.03100 0.05300 
-0.00150 -0.06500 0.00200 
0.07900 0.01050 0.00050 
0.05450 -0.07150 -0.09350 
0.03600 0.00650 -0.02650 
0.00700 0.12600 0.00950 
-0.13900 0.01000 -0.08000 
0.01200 -0.01850 -0.23800 
-0.02600 0.09250 -0.09600 
0.09650 -0.03700 -0.06450 
0.04000 0.05000 -0.22250 
0.04150 0.14150 -0.17750 
-0.03250 0.07200 -0.13900 
0.03300 0.00350 -0.13700 
-0.00450 0.07200 -0.08650 
-0.02700 0.07000 -0.01750 
-0.01250 0.08950 -0.04700 
0.07200 -0.03150 0.08350 
0.01800 -0.01900 0.00450 
0.05750 0.05950 -0.00900 
0.02550 -0.09050 0.08550 
0.20400 -0.07700 -0.00250 
0.13600 0.07950 -0.11000 
-0.02100 -0.05200 -0.04400 
0.07850 -0.02700 0.11050 
0.06900 0.07150 -0.02800 
-0.16600 -0.05800 0.06650 
0.04600 0.08000 -0.03700 
0.05800 0.08300 -0.15000 
0.09050 -0.00250 -0.25700 
0.02350 -0.00150 -0.05100 
0.05350 0.04800 -0.10400 
0.03700 0.10650 -0.05350 
0.08450 0.04100 0.07100 
-0.03100 0.04900 -0.14950 
0.07900 0.10700 -0.00600 
0.05600 0.08150 0.08950 
0.05000 0.10500 -0.05600 
0.08500 0.06550 -0.01500 
-0.02950 0.05450 -0.05600 
-0.01250 0.01000 -0.09600 
0.00750 -0.00450 -0.18100 
-0.04250 0.01000 0.03850 
0.06450 -0.10600 0.09650 
0.10100 -0.01000 -0.01550 
-0.01650 -0.00950 0.04950 
-0.11150 0.01450 -0.02800 
0.05900 0.07500 -0.18400 
0.04200 0.18050 0.08150 
-0.03750 0.04000 -0.13450 
-0.01150 0.12150 -0.16150 
0.04450 -0.06350 -0.15850 
-0.03650 0.04950 0.15450 
0.01150 -0.02850 -0.19000 
0.11900 0.09700 -0.04850 
-0.03300 -0.07350 0.01500 
0.03550 0.09950 0.02400 
0.00650 0.06650 -0.12500 
0.03300 0.03200 -0.03950 
0.08400 0.00400 0.08850 
-0.15100 0.00150 -0.02800 
0.08150 0.05500 -0.14800 
-0.04500 -0.04200 -0.10300 
0.07450 -0.01300 0.09250 
0.04850 0.12850 0.03350 
0.07650 0.07150 -0.06600 
0.02650 0.01800 -0.12700 
0.11050 0.15050 -0.03500 
-0.14050 0.00750 -0.01200 
0.15250 0.12800 0.01650 
0.02550 -0.02000 -0.17800 
-0.15900 -0.03950 0.10950 
-0.09700 0.00850 -0.09750 
0.13500 0.03250 -0.26800 
0.06200 0.08150 -0.11700 
-0.01550 -0.12700 -0.15200 
-0.04800 0.05450 -0.16500 
0.03450 0.17800 -0.04100 
0.02250 -0.06900 -0.09600 
-0.00400 0.16650 -0.06250 
0.06700 0.09850 -0.05000 
-0.14250 0.06500 -0.16650 
-0.01300 -0.00150 -0.24950 
0.02100 0.09000 -0.17750 
-0.02650 -0.05600 -0.07450 
-0.09900 0.08000 -0.10450 
0.02250 0.05550 -0.05000 
0.03550 0.10100 0.00850 
0.05200 -0.00600 0.05500 
0.04850 0.14050 0.01250 
-0.00750 0.14650 -0.10800 
0.00900 -0.06900 -0.14300 
0.15250 0.19200 -0.06700 
0.00500 0.03250 -0.10100 
0.09800 0.08850 -0.19300 
0.01950 -0.06750 -0.16350 
0.19650 0.03600 0.02600 
0.11350 0.02850 0.04200 
0.04450 0.06000 -0.00800 
0.09050 0.02150 -0.05750 
0.13650 0.07750 0.00100 
-0.00050 -0.06000 -0.07050 
-0.01800 0.03000 -0.11300 
0.07050 0.04300 0.04600 
0.08650 -0.02750 -0.20850 
0.02500 0.02800 -0.14600 
-0.09000 0.01350 0.07450 
0.02250 0.02900 -0.08350 
0.13100 -0.04100 -0.21600 
0.05500 0.09100 -0.09700 
-0.01200 0.07750 -0.10400 
0.14700 0.04700 -0.03850 
0.01550 -0.04150 0.11850 
0.03100 0.14900 -0.16200 
-0.02600 -0.05000 -0.08150 
0.01550 0.00600 -0.04600 
0.06250 0.03100 -0.21900 
0.13400 0.05450 0.02000 
-0.03000 0.04050 -0.18300 
-0.01600 -0.03000 -0.13500 
0.10150 0.05850 -0.01450 
0.00650 -0.03300 -0.10350 
0.01150 0.05100 -0.13300 
0.07650 0.09750 -0.10650 
-0.07050 -0.02250 -0.04500 
0.05400 -0.01250 -0.10750 
0.04650 -0.00750 -0.11100 
0.16000 0.17450 -0.12050 
0.01750 0.03900 -0.04200 
0.06700 0.04450 -0.01650 
0.06950 0.03850 -0.03800 
0.02900 0.06150 0.04300 
-0.00700 -0.03100 -0.12200 
0.06750 0.05600 0.01300 
-0.09050 -0.02850 -0.09300 
-0.17250 0.02700 -0.14700 
0.03750 0.01350 -0.23800 
0.04100 0.09850 -0.09050 
0.11500 0.12450 0.03050 
0.01100 -0.05350 -0.04050 
-0.00500 0.10200 -0.07700 
0.08000 0.07150 0.05500 
-0.01900 0.11500 -0.06400 
-0.00000 0.00550 -0.16500 
0.07100 0.12600 -0.18700 
-0.04350 -0.05200 -0.02050 
0.07150 -0.02700 -0.17150 
0.12350 0.16450 -0.13950 
0.06350 0.01850 -0.01900 
0.10750 0.01000 0.00400 
0.03000 0.07050 -0.10950 
0.01100 0.06300 -0.14950 
0.12650 -0.00450 -0.11400 
0.03700 -0.01800 -0.12750 
-0.15150 -0.11150 -0.00350 
-0.05950 -0.07950 0.09400 
0.03500 0.06950 -0.12050 
0.00500 0.00100 -0.11800 
-0.00050 0.01600 -0.08700 
0.13800 0.08500 -0.17200 
0.12950 0.14350 0.02450 
0.07950 0.06850 -0.02000 
-0.07650 -0.00650 0.09250 
-0.03350 0.04600 0.02100 
0.04100 0.12500 -0.25850 
-0.02750 -0.05700 -0.17500 
0.06700 0.01700 -0.08700 
0.00750 0.00900 -0.07250 
-0.02800 0.08300 -0.06750 
-0.03400 -0.02450 -0.10450 
-0.20200 0.10800 -0.08500 
0.20900 -0.06550 0.09250 
0.02750 0.19100 -0.09200 
0.07300 -0.00750 -0.14950 
0.06600 0.15900 -0.09200 
0.18600 0.07800 0.03650 
0.00550 0.01950 -0.24400 
0.09850 -0.00750 -0.09150 
-0.12400 0.09350 -0.10900 
-0.03950 -0.02650 -0.00950 
0.14200 0.01550 -0.11000 
-0.09700 -0.13700 0.06100 
0.15800 -0.09150 -0.21900 
-0.04100 0.04650 -0.29850 
0.05650 0.06300 0.03150 
0.11300 0.06050 0.10200 
0.03700 0.03800 -0.20800 
-0.04700 0.03500 -0.04150 
-0.06050 -0.03800 -0.09750 
0.06550 0.03550 -0.01700 
0.08650 0.05300 0.08950 
-0.04000 0.09400 0.06000 
-0.05650 -0.09250 -0.14700 
0.17000 -0.02350 0.00800 
-0.00950 -0.01300 -0.03100 
0.03400 -0.09250 -0.06450 
0.11700 -0.09400 -0.12800 
0.10800 0.05950 -0.26650 
-0.00650 -0.07850 -0.15850 
0.12400 0.11100 -0.03950 
-0.11650 0.02700 -0.07850 
-0.02950 0.02000 0.04800 
0.16000 0.12850 -0.28400 
-0.07600 -0.03400 -0.14850 
0.10700 0.02100 -0.00550 
-0.20350 0.02300 -0.01600 
0.05050 0.07200 0.07600 
0.14450 0.00950 -0.06050 
0.02300 0.03500 0.05150 
-0.09300 -0.00600 -0.12300 
0.11150 0.09900 -0.02300 
-0.05550 0.01400 -0.11000 
0.10100 0.16900 0.13800 
0.10200 -0.13250 -0.17300 
0.07300 0.10950 0.16200 
0.06050 0.09800 -0.17400 
0.04950 0.19450 -0.06000 
-0.07700 0.03800 -0.08350 
0.07950 0.06800 -0.10150 
0.09800 -0.01700 -0.09750 
0.03300 0.04200 -0.01800 
0.01150 -0.12250 -0.09100 
0.08800 0.10450 -0.08450 
-0.02750 0.00900 0.08750 
-0.04750 -0.00250 -0.05500 
0.09700 0.13000 -0.12450 
-0.08050 -0.04300 -0.08150 
-0.01200 0.05700 0.11000 
-0.07000 0.06100 -0.22150 
0.04300 0.00250 -0.06000 
-0.12700 -0.24750 -0.00850 
0.05900 0.02550 0.12250 
0.08000 -0.07000 -0.06700 
0.18650 0.01650 -0.05000 
-0.04850 0.05450 -0.15500 
-0.06600 -0.12350 0.03500 
0.17200 0.17350 -0.02550 
0.06100 0.02100 -0.09150 
0.19850 0.20350 -0.16950 
-0.01150 -0.07200 -0.16000 
-0.16050 0.02650 0.02300 
-0.06100 -0.02950 0.03250 
0.06400 0.10300 0.04500 
-0.04250 0.08750 0.10950 
0.06500 0.04600 0.02350 
0.01850 0.02500 -0.00400 
0.13150 -0.04900 0.02700 
0.04200 0.10250 -0.08400 
0.03350 0.04250 -0.18000 
-0.04550 -0.01900 -0.01800 
0.12600 -0.00250 -0.07400 
0.04250 0.08150 0.00700 
-0.05500 0.08850 -0.26150 
0.02300 0.04950 -0.09150 
0.06350 0.06700 -0.22550 
0.04550 0.19050 -0.12200 
0.09700 -0.00300 -0.01600 
0.06050 -0.09250 -0.15200 
0.03550 0.02900 -0.16450 
0.03600 0.07300 -0.08750 
0.01300 0.00150 -0.15350 
0.06150 0.07150 0.01450 
0.06550 0.11400 -0.25850 
0.06700 -0.03650 -0.18500 
0.01850 0.10650 -0.08600 
0.02300 0.00750 -0.05000 