# vtk DataFile Version 2.0 
Xm, Ym, Zm, Uvecs, timestep 10118 
ASCII 
 
DATASET POLYDATA POINTS 508 float 
  9.706   2.596 -71.311 
 -1.190   4.281 -70.329 
  5.950   1.684 -71.836 
  5.149   1.050 -71.597 
-14.731  -4.473 -70.723 
  1.227  10.326 -69.641 
 -6.750  -0.357 -75.412 
 -0.020   7.425 -68.264 
 -6.687   3.930 -69.815 
 -7.488   1.255 -67.891 
 -0.028   5.768 -76.621 
 -8.800   8.600 -69.668 
  1.408  -6.657 -70.294 
  5.445   8.970 -74.132 
  5.101  -3.509 -72.633 
  1.878   5.400 -70.207 
  0.662   8.630 -69.303 
 -1.507  12.230 -72.303 
 -1.434  10.229 -68.596 
  0.774  -4.858 -69.102 
  7.075   9.941 -69.968 
  1.293  10.870 -67.454 
  2.088   1.056 -68.959 
  6.848  -1.119 -71.847 
-16.000  -8.762 -74.245 
 -0.346   9.287 -68.832 
  6.691  -3.773 -69.505 
 10.017  -0.870 -68.203 
  4.985  -7.347 -71.132 
  5.072   1.827 -70.859 
  1.672   7.833 -67.757 
  7.805  -1.875 -69.623 
 -9.424  11.924 -70.807 
  4.805  -0.534 -69.952 
 -2.260  -1.509 -71.849 
 -6.529  -3.399 -72.941 
 -4.596  10.857 -64.192 
  8.646   5.120 -68.912 
 -4.614   3.531 -71.447 
  7.187   1.277 -74.021 
 -4.920   3.648 -64.275 
 -4.071   0.928 -67.168 
 -7.303  11.383 -68.825 
  2.286  -5.473 -74.283 
 -1.333   3.898 -73.834 
  0.716   6.311 -63.320 
 -0.548   3.026 -65.935 
  1.655   7.847 -71.853 
  4.168   6.215 -66.633 
 -7.475   4.608 -70.075 
 -1.107  -9.386 -69.058 
 -2.962  -1.192 -67.383 
 -4.683  -3.962 -66.892 
 -1.785 -10.391 -69.924 
  4.383   8.259 -64.838 
 -0.641  12.028 -65.829 
 -3.569   6.241 -69.440 
  9.784   5.183 -72.005 
  0.622   7.929 -68.294 
 -6.729  -8.997 -67.200 
 -2.844  -0.849 -63.807 
  9.469  -3.024 -69.216 
 -0.337   2.427 -72.075 
 -1.865   9.667 -60.395 
  1.077   0.653 -68.538 
 -6.014  -0.034 -64.405 
  5.377  -4.033 -66.947 
 -1.646  -2.494 -66.968 
  3.382  -6.874 -66.904 
-10.062 -12.305 -68.578 
  5.663   1.337 -66.561 
 10.486  -1.632 -72.477 
-10.566  -5.720 -67.181 
 -0.029   1.171 -63.996 
  9.401  -2.458 -64.716 
  9.767  -1.557 -67.355 
-14.540  -3.587 -70.585 
-13.276  11.032 -68.178 
 15.285   3.127 -68.429 
  5.773  -2.069 -74.417 
  8.546  -8.399 -67.844 
  4.010  10.980 -68.965 
-10.207   7.561 -64.517 
 -7.523   2.488 -70.123 
-13.067  -8.477 -66.233 
  7.882  -2.752 -68.278 
 -4.451   6.675 -64.997 
 -5.719 -10.020 -75.373 
 -2.601   3.462 -62.888 
 11.717   7.533 -70.382 
 -5.856   7.579 -63.293 
 -5.313 -11.829 -70.228 
  5.752  -8.260 -67.679 
 -2.618  -6.499 -67.899 
 -4.051  -0.300 -66.942 
  2.180   0.320 -73.189 
 -1.817  11.157 -67.072 
-12.987  -2.523 -67.177 
  9.920   4.415 -71.019 
  7.338   5.138 -66.261 
 -1.757   3.204 -69.097 
 13.899   8.003 -73.661 
 -9.197  -7.084 -69.588 
-10.678   5.790 -68.344 
  3.205   5.343 -66.582 
 -3.783  -6.710 -73.075 
  0.367  -9.692 -66.080 
 -3.450   6.496 -61.962 
  8.970   6.941 -68.562 
  3.458  12.346 -70.075 
  2.367   3.503 -62.532 
 -7.498   1.324 -64.471 
  5.688  -8.491 -69.487 
  4.732 -11.749 -67.970 
 -7.466   0.776 -75.353 
-13.490  10.206 -72.122 
  6.339  -2.031 -65.652 
-10.516   0.895 -72.810 
  5.582  10.632 -72.971 
  5.255  12.759 -63.339 
  8.819   2.467 -63.243 
 -3.135  -6.207 -65.499 
 -8.540   0.250 -65.618 
 -0.603   6.558 -69.294 
  6.872   0.447 -74.120 
 -0.558   5.291 -66.751 
-12.246   2.651 -69.090 
 -8.281 -12.407 -67.725 
 -0.164 -12.213 -67.710 
  8.631   2.259 -66.786 
  9.008   6.473 -61.217 
 16.584   0.147 -67.703 
  5.005  -2.500 -74.858 
 -4.048   7.696 -68.098 
  9.511  -2.471 -70.997 
 -1.325  11.941 -67.561 
-14.052   0.598 -75.414 
 -0.594   2.290 -65.112 
-13.959   1.461 -76.145 
 -9.756   1.386 -72.142 
  9.445  -5.267 -69.679 
  3.478  -9.524 -68.278 
-13.175   0.281 -65.973 
 -9.660   1.491 -66.383 
 12.617  -1.930 -68.523 
 -7.689  -5.837 -74.653 
 -7.141  -5.257 -65.436 
 -9.148 -11.371 -67.994 
-15.060   5.975 -72.665 
 16.012   7.933 -68.147 
 11.064  -5.151 -69.873 
  2.562  12.413 -70.501 
  4.563   1.760 -62.323 
  5.582  11.352 -70.832 
 -9.533   6.540 -74.701 
-11.715   5.571 -72.631 
 -4.454  11.666 -74.191 
  0.542   9.137 -63.671 
 -3.364   4.162 -73.049 
  4.019 -12.975 -66.450 
 -4.319  -5.627 -63.355 
 -3.584   4.575 -62.082 
-13.948  12.091 -68.889 
 12.507   0.600 -67.070 
  2.116   6.328 -72.502 
 -3.697  -8.232 -71.667 
 16.035   8.056 -71.470 
 -2.384  -7.255 -66.079 
 -6.384  -1.073 -69.115 
  4.614   7.507 -71.999 
 -0.115 -10.347 -65.315 
 -1.652  10.035 -66.158 
  6.371  -5.726 -60.733 
 -4.285  -1.052 -67.239 
 11.990  -6.611 -65.855 
 10.960  -4.210 -64.295 
 -4.044  -7.806 -67.288 
-10.099  11.627 -70.690 
 -8.379   2.833 -63.889 
-11.340  -5.732 -65.796 
  4.841 -10.509 -69.703 
 -1.207   7.277 -64.787 
  8.046  -8.454 -69.470 
 10.621  -6.013 -64.347 
-10.418  10.861 -69.139 
 13.987  -4.870 -64.796 
 -0.171  -9.883 -68.049 
  2.736   5.318 -69.516 
 -1.841 -12.709 -67.213 
 -8.939   6.901 -74.313 
-12.471  -6.231 -72.839 
-11.178  12.246 -64.064 
  2.002  -5.803 -65.682 
 -4.644  -4.421 -75.855 
 14.201   0.692 -68.493 
 12.933  -2.072 -72.282 
 -0.180  -3.283 -67.322 
-13.845   8.833 -68.560 
 10.497  10.439 -68.721 
 -0.795 -10.121 -66.949 
-10.898  -3.688 -72.514 
  1.032  -4.806 -66.047 
 -1.269  12.262 -65.031 
 -2.882   7.165 -68.799 
 -8.306   2.056 -74.566 
  6.046   0.488 -61.374 
 -0.227 -12.006 -65.368 
 15.697  -4.673 -67.377 
  5.603  -5.875 -62.838 
-13.238   9.451 -70.083 
 -8.961   8.501 -75.304 
  4.904   4.793 -73.518 
  1.404 -12.738 -68.412 
  5.364  -1.463 -66.685 
 16.137   3.982 -72.185 
  9.856  -4.354 -67.644 
 -1.457  -7.508 -69.557 
  2.596   0.273 -63.882 
 -1.043 -11.785 -65.151 
 -2.758   2.787 -69.282 
  2.627   2.603 -64.411 
  7.815   9.411 -62.679 
 -0.867   3.630 -61.154 
-14.770  -6.675 -71.671 
-10.099   5.622 -62.644 
 -5.737 -10.994 -65.900 
  6.942  10.142 -75.917 
 -1.202   5.255 -64.503 
 11.831  -8.570 -66.208 
  2.845 -10.476 -75.784 
 -7.872  -1.600 -74.916 
 12.587   6.257 -68.057 
 -5.378   2.882 -63.487 
-14.301   3.765 -68.912 
 14.621   9.062 -71.278 
  8.973   5.328 -66.210 
 10.660   6.047 -62.670 
-11.002   8.166 -71.159 
 -0.891  -3.144 -75.804 
 -8.199   6.228 -61.096 
  0.788  -4.410 -70.578 
  0.102  -3.486 -62.873 
 -1.373  12.726 -63.660 
 -3.249 -10.847 -68.452 
 11.172  -4.694 -67.724 
  3.737   2.544 -66.697 
-15.736   9.312 -73.483 
 -8.047  -5.819 -69.393 
  9.721 -11.999 -65.047 
  4.692  -8.843 -66.796 
-10.700   3.170 -72.601 
 17.325  -6.012 -69.624 
 -8.599   9.852 -71.232 
-10.131  -8.706 -68.073 
 -9.921  12.692 -65.892 
 -6.598  -3.107 -63.419 
 -3.402  -5.952 -69.246 
-12.689   3.936 -68.391 
  6.232  11.092 -72.138 
 -5.156  -3.384 -69.716 
 11.023   1.257 -61.416 
 15.028   7.729 -71.468 
-12.973  -2.817 -71.433 
  9.432   6.969 -66.469 
 -3.574   6.773 -64.473 
 15.125  12.336 -67.501 
  8.084   4.718 -65.469 
 -9.970  -1.646 -70.757 
 -9.555   1.168 -77.742 
 10.514   1.455 -66.657 
  9.893  -8.245 -70.029 
-10.022  -3.167 -72.894 
 15.272   1.307 -66.931 
 -9.894  -3.925 -60.772 
 -9.459  -3.386 -74.984 
  1.889   5.073 -61.648 
-12.596   3.775 -66.680 
-11.430   6.413 -74.687 
-13.358  11.804 -72.153 
  9.404  10.026 -70.134 
  5.689 -11.881 -67.930 
 -0.273  -6.684 -66.676 
 -3.526   0.772 -70.826 
 12.727  -4.230 -64.758 
 -3.646  -5.535 -59.328 
 16.996  -6.442 -71.761 
 12.908  -0.444 -77.668 
  5.846   8.379 -63.698 
 -1.956   5.664 -68.594 
 11.385  -3.244 -63.180 
 -1.869   7.700 -60.184 
 16.360   0.615 -73.922 
  5.714  11.029 -67.935 
 -3.742  10.684 -72.576 
 12.829   8.564 -67.852 
  2.891   9.210 -68.478 
  9.154   1.793 -67.025 
 -9.258   2.911 -73.159 
  2.309  -4.944 -68.660 
  3.669 -12.125 -66.673 
 -6.204   3.554 -63.659 
  8.451   7.590 -64.196 
  9.379  10.448 -70.014 
 -2.662  10.921 -68.654 
  6.456   9.445 -65.269 
 12.474  -0.596 -65.228 
-11.338  -2.253 -74.555 
  8.897  -0.021 -68.745 
  3.644  10.061 -71.612 
 11.302  12.493 -73.964 
  2.881  11.576 -64.094 
-14.213  -8.361 -74.044 
 -4.080   9.866 -67.937 
 -8.483  12.076 -76.232 
-10.503  -9.315 -61.925 
  0.393  12.102 -69.189 
 14.871  -7.630 -73.987 
  5.107   6.479 -63.543 
 -6.862   7.593 -75.612 
 -5.450  -0.359 -70.096 
  1.546  11.708 -65.477 
-10.678  -8.259 -66.621 
  9.378  11.188 -70.805 
  1.980  -5.657 -66.941 
  3.917   1.220 -64.613 
 -1.114  11.464 -62.527 
-10.063  -1.495 -72.825 
-11.726   5.900 -71.021 
 -6.245   8.937 -61.490 
  0.593   0.120 -63.418 
 -7.550  -3.594 -65.489 
 -6.819  -8.791 -63.269 
  5.649  -2.579 -68.595 
 14.105   9.806 -67.876 
  0.950  -6.522 -76.820 
  7.115 -10.880 -67.720 
 15.394   0.066 -63.000 
 -7.867   9.910 -66.630 
-13.416  11.374 -73.088 
 -0.785  -4.215 -62.902 
  6.456   5.354 -72.179 
  6.998   8.296 -65.351 
 12.166  -9.513 -65.006 
-10.584  -3.334 -62.326 
 -1.808  -4.414 -61.904 
  6.899 -11.924 -61.889 
 -3.063   8.680 -63.661 
-15.432  -6.425 -70.805 
-12.800   2.005 -77.294 
 -7.510  -5.515 -67.512 
 -9.142   5.830 -59.529 
 -7.388  -9.983 -58.566 
-12.861  -7.789 -68.078 
 -0.116   9.428 -58.425 
-15.913   7.145 -74.902 
 -3.644 -10.805 -64.456 
  7.879   0.527 -73.163 
-14.878   5.470 -70.994 
  7.005  -1.556 -60.168 
 -4.841   2.085 -74.080 
 -0.485   1.091 -76.949 
 11.942  10.511 -71.106 
  9.356  -2.117 -62.538 
  2.381  -6.135 -76.695 
  4.464 -10.627 -65.974 
 -4.631   2.550 -72.784 
 -3.920  10.015 -62.098 
  5.595 -12.020 -67.888 
 -9.386  -8.473 -65.454 
 16.916   4.332 -65.155 
 -7.752  11.281 -60.560 
 11.680   0.367 -72.060 
  3.477   5.005 -69.116 
  2.654  -8.095 -66.070 
 12.858  -3.697 -68.792 
-11.130  -7.562 -67.535 
  4.027   6.505 -63.935 
  3.940  -4.192 -62.444 
  0.179 -11.756 -68.233 
  1.595  -8.643 -63.663 
  8.928  -1.679 -59.246 
  1.076   0.123 -62.454 
 -3.804   2.453 -69.409 
 -0.068  -2.855 -67.438 
 -0.032  -7.860 -65.442 
  7.088  12.576 -69.609 
  9.397  -3.006 -62.894 
 13.573  -5.668 -74.767 
 12.227  11.107 -65.245 
  9.733   3.954 -66.926 
 -1.909   8.706 -74.191 
-13.884   9.416 -73.355 
 -2.998   7.652 -75.853 
  2.793   0.073 -70.174 
 12.014   9.588 -68.581 
 -0.265 -11.274 -65.422 
 12.066  -9.950 -65.848 
 14.574   4.896 -72.312 
-12.145  -9.422 -66.814 
  3.248  10.413 -76.443 
 -6.909  11.817 -75.802 
 15.430  -3.644 -63.099 
 11.579  -7.649 -65.602 
 -8.216  11.732 -59.645 
 -8.358  -7.790 -67.361 
  7.850  -1.469 -71.718 
 -5.864 -11.834 -70.661 
  5.186  -7.628 -75.741 
 -6.776  -8.456 -68.144 
-14.770  -8.581 -70.886 
  9.063 -11.397 -72.018 
-13.326   8.109 -65.733 
 16.176  -4.350 -70.198 
 16.746  -9.940 -69.929 
 -0.399 -10.715 -71.049 
 -9.832  -5.673 -77.756 
  6.818  -6.992 -73.301 
-13.986  -2.254 -70.542 
 14.585 -11.656 -72.845 
-13.337  12.464 -66.044 
  5.236   1.171 -61.421 
  7.675 -11.122 -63.484 
 -6.283   7.412 -72.252 
 11.105  -5.047 -62.471 
-14.845   9.962 -68.892 
-13.464  -1.599 -65.225 
 -6.223  -9.468 -58.942 
 -6.967   6.611 -64.816 
-11.299  -7.877 -61.352 
 -2.565  11.540 -73.777 
  7.642 -10.355 -66.823 
 -0.423  12.097 -72.511 
  8.623  -0.472 -73.866 
  1.137  11.689 -62.966 
-10.359   0.222 -61.278 
  0.567   2.255 -74.262 
-12.666   7.566 -72.782 
 -5.947   8.813 -75.669 
-13.516   3.994 -73.162 
-12.963   3.609 -75.382 
 -4.308  11.964 -72.797 
 -3.063 -11.704 -74.773 
-14.905 -11.448 -75.228 
 -7.444  -1.710 -68.643 
 14.319  -6.254 -65.945 
-13.076   2.617 -67.167 
 17.459  -0.634 -66.673 
  0.501   2.909 -73.145 
  4.094 -10.966 -65.597 
  5.660  -6.980 -62.922 
 -7.041   8.846 -68.243 
 12.005  -2.043 -63.112 
  4.169   4.505 -57.916 
 -8.168  -4.598 -73.338 
-10.130   6.367 -62.779 
  4.073  -9.090 -69.281 
  7.424  -5.886 -64.462 
-11.689   1.418 -63.469 
-10.182   6.519 -77.103 
 -5.999  12.215 -69.246 
  8.652   1.589 -71.011 
  3.035   8.993 -68.447 
 13.468  -8.713 -68.535 
 10.797  -2.104 -65.988 
  5.548 -13.339 -62.511 
 16.179  -8.026 -67.166 
 -4.463   3.128 -65.780 
 13.509   4.730 -63.441 
 12.414  -8.372 -64.485 
 -0.057 -11.671 -71.331 
 11.263  -1.859 -63.793 
  6.822   9.520 -76.719 
-15.294  11.480 -72.549 
 -8.056  -1.730 -62.058 
  3.765   2.010 -64.888 
 -6.444  -1.492 -66.425 
  5.359  -8.009 -71.010 
  6.751   4.843 -67.334 
  1.737  -3.898 -67.923 
  4.236   7.431 -70.952 
 -7.809   1.809 -63.547 
 14.627   6.716 -67.775 
 15.499   5.324 -71.433 
 12.372   5.833 -70.046 
 -0.801  10.454 -75.004 
 -8.810   7.441 -65.787 
 -5.685   6.893 -72.275 
 -0.385  -7.723 -71.349 
  1.187   4.353 -76.531 
 -7.869  -9.635 -63.593 
-13.004  -4.779 -74.355 
 -2.462  -7.387 -60.680 
  5.517  -4.556 -75.251 
 -4.598   6.764 -63.285 
 13.344 -11.238 -76.373 
 -3.305   5.454 -62.408 
-14.903  12.501 -67.173 
-16.189   8.857 -69.209 
 -7.782   6.762 -75.189 
 -2.777   2.484 -67.173 
 -4.658 -10.163 -61.596 
 10.063  -6.224 -64.813 
 16.880  10.373 -71.912 
 12.022  -1.530 -71.332 
-14.898  -0.634 -75.994 
 -5.128  10.836 -74.604 
-11.906   8.393 -71.621 
 18.752  -7.234 -69.367 

 VERTICES 508 1016 
1 0 
1 1 
1 2 
1 3 
1 4 
1 5 
1 6 
1 7 
1 8 
1 9 
1 10 
1 11 
1 12 
1 13 
1 14 
1 15 
1 16 
1 17 
1 18 
1 19 
1 20 
1 21 
1 22 
1 23 
1 24 
1 25 
1 26 
1 27 
1 28 
1 29 
1 30 
1 31 
1 32 
1 33 
1 34 
1 35 
1 36 
1 37 
1 38 
1 39 
1 40 
1 41 
1 42 
1 43 
1 44 
1 45 
1 46 
1 47 
1 48 
1 49 
1 50 
1 51 
1 52 
1 53 
1 54 
1 55 
1 56 
1 57 
1 58 
1 59 
1 60 
1 61 
1 62 
1 63 
1 64 
1 65 
1 66 
1 67 
1 68 
1 69 
1 70 
1 71 
1 72 
1 73 
1 74 
1 75 
1 76 
1 77 
1 78 
1 79 
1 80 
1 81 
1 82 
1 83 
1 84 
1 85 
1 86 
1 87 
1 88 
1 89 
1 90 
1 91 
1 92 
1 93 
1 94 
1 95 
1 96 
1 97 
1 98 
1 99 
1 100 
1 101 
1 102 
1 103 
1 104 
1 105 
1 106 
1 107 
1 108 
1 109 
1 110 
1 111 
1 112 
1 113 
1 114 
1 115 
1 116 
1 117 
1 118 
1 119 
1 120 
1 121 
1 122 
1 123 
1 124 
1 125 
1 126 
1 127 
1 128 
1 129 
1 130 
1 131 
1 132 
1 133 
1 134 
1 135 
1 136 
1 137 
1 138 
1 139 
1 140 
1 141 
1 142 
1 143 
1 144 
1 145 
1 146 
1 147 
1 148 
1 149 
1 150 
1 151 
1 152 
1 153 
1 154 
1 155 
1 156 
1 157 
1 158 
1 159 
1 160 
1 161 
1 162 
1 163 
1 164 
1 165 
1 166 
1 167 
1 168 
1 169 
1 170 
1 171 
1 172 
1 173 
1 174 
1 175 
1 176 
1 177 
1 178 
1 179 
1 180 
1 181 
1 182 
1 183 
1 184 
1 185 
1 186 
1 187 
1 188 
1 189 
1 190 
1 191 
1 192 
1 193 
1 194 
1 195 
1 196 
1 197 
1 198 
1 199 
1 200 
1 201 
1 202 
1 203 
1 204 
1 205 
1 206 
1 207 
1 208 
1 209 
1 210 
1 211 
1 212 
1 213 
1 214 
1 215 
1 216 
1 217 
1 218 
1 219 
1 220 
1 221 
1 222 
1 223 
1 224 
1 225 
1 226 
1 227 
1 228 
1 229 
1 230 
1 231 
1 232 
1 233 
1 234 
1 235 
1 236 
1 237 
1 238 
1 239 
1 240 
1 241 
1 242 
1 243 
1 244 
1 245 
1 246 
1 247 
1 248 
1 249 
1 250 
1 251 
1 252 
1 253 
1 254 
1 255 
1 256 
1 257 
1 258 
1 259 
1 260 
1 261 
1 262 
1 263 
1 264 
1 265 
1 266 
1 267 
1 268 
1 269 
1 270 
1 271 
1 272 
1 273 
1 274 
1 275 
1 276 
1 277 
1 278 
1 279 
1 280 
1 281 
1 282 
1 283 
1 284 
1 285 
1 286 
1 287 
1 288 
1 289 
1 290 
1 291 
1 292 
1 293 
1 294 
1 295 
1 296 
1 297 
1 298 
1 299 
1 300 
1 301 
1 302 
1 303 
1 304 
1 305 
1 306 
1 307 
1 308 
1 309 
1 310 
1 311 
1 312 
1 313 
1 314 
1 315 
1 316 
1 317 
1 318 
1 319 
1 320 
1 321 
1 322 
1 323 
1 324 
1 325 
1 326 
1 327 
1 328 
1 329 
1 330 
1 331 
1 332 
1 333 
1 334 
1 335 
1 336 
1 337 
1 338 
1 339 
1 340 
1 341 
1 342 
1 343 
1 344 
1 345 
1 346 
1 347 
1 348 
1 349 
1 350 
1 351 
1 352 
1 353 
1 354 
1 355 
1 356 
1 357 
1 358 
1 359 
1 360 
1 361 
1 362 
1 363 
1 364 
1 365 
1 366 
1 367 
1 368 
1 369 
1 370 
1 371 
1 372 
1 373 
1 374 
1 375 
1 376 
1 377 
1 378 
1 379 
1 380 
1 381 
1 382 
1 383 
1 384 
1 385 
1 386 
1 387 
1 388 
1 389 
1 390 
1 391 
1 392 
1 393 
1 394 
1 395 
1 396 
1 397 
1 398 
1 399 
1 400 
1 401 
1 402 
1 403 
1 404 
1 405 
1 406 
1 407 
1 408 
1 409 
1 410 
1 411 
1 412 
1 413 
1 414 
1 415 
1 416 
1 417 
1 418 
1 419 
1 420 
1 421 
1 422 
1 423 
1 424 
1 425 
1 426 
1 427 
1 428 
1 429 
1 430 
1 431 
1 432 
1 433 
1 434 
1 435 
1 436 
1 437 
1 438 
1 439 
1 440 
1 441 
1 442 
1 443 
1 444 
1 445 
1 446 
1 447 
1 448 
1 449 
1 450 
1 451 
1 452 
1 453 
1 454 
1 455 
1 456 
1 457 
1 458 
1 459 
1 460 
1 461 
1 462 
1 463 
1 464 
1 465 
1 466 
1 467 
1 468 
1 469 
1 470 
1 471 
1 472 
1 473 
1 474 
1 475 
1 476 
1 477 
1 478 
1 479 
1 480 
1 481 
1 482 
1 483 
1 484 
1 485 
1 486 
1 487 
1 488 
1 489 
1 490 
1 491 
1 492 
1 493 
1 494 
1 495 
1 496 
1 497 
1 498 
1 499 
1 500 
1 501 
1 502 
1 503 
1 504 
1 505 
1 506 
1 507 
POINT_DATA 508 
SCALARS MeanU double 1 
LOOKUP_TABLE default
0.15636 
0.09156 
0.17448 
0.15294 
0.14051 
0.09249 
0.14458 
0.10779 
0.14798 
0.20481 
0.08818 
0.15583 
0.16502 
0.17881 
0.15999 
0.09115 
0.11413 
0.10627 
0.12674 
0.16623 
0.04941 
0.08629 
0.20404 
0.20975 
0.07901 
0.08752 
0.16845 
0.07511 
0.19041 
0.16942 
0.10445 
0.23168 
0.08593 
0.13439 
0.17062 
0.16382 
0.18515 
0.12310 
0.10196 
0.21039 
0.12339 
0.13470 
0.09069 
0.10512 
0.11038 
0.07574 
0.10925 
0.11991 
0.08872 
0.16539 
0.10404 
0.17378 
0.24496 
0.11122 
0.10434 
0.14120 
0.08677 
0.14686 
0.10807 
0.06021 
0.12095 
0.09874 
0.18752 
0.17804 
0.16889 
0.10774 
0.26339 
0.16019 
0.18732 
0.11129 
0.17982 
0.11797 
0.13913 
0.08528 
0.16206 
0.11453 
0.18328 
0.17519 
0.08645 
0.12719 
0.14620 
0.10733 
0.16677 
0.25262 
0.16953 
0.21375 
0.16532 
0.15957 
0.08472 
0.11429 
0.17633 
0.09913 
0.18776 
0.21120 
0.17126 
0.15109 
0.14921 
0.25482 
0.14337 
0.14627 
0.14552 
0.18936 
0.07879 
0.14331 
0.08780 
0.08860 
0.09333 
0.12939 
0.09411 
0.11756 
0.14027 
0.14798 
0.20429 
0.11025 
0.13210 
0.03654 
0.25989 
0.12293 
0.06757 
0.14738 
0.16731 
0.16309 
0.19813 
0.14161 
0.24436 
0.08123 
0.16102 
0.12284 
0.12128 
0.20301 
0.16530 
0.04959 
0.14863 
0.14122 
0.13449 
0.08378 
0.09815 
0.14404 
0.10390 
0.11174 
0.22920 
0.13175 
0.22555 
0.29946 
0.08280 
0.15546 
0.12162 
0.09672 
0.08952 
0.14671 
0.07391 
0.10602 
0.14414 
0.06552 
0.08538 
0.15026 
0.06074 
0.12354 
0.15935 
0.08533 
0.19309 
0.13766 
0.14089 
0.10155 
0.11878 
0.15214 
0.15110 
0.14471 
0.18189 
0.12372 
0.11126 
0.14664 
0.18560 
0.14704 
0.11171 
0.12483 
0.15943 
0.13146 
0.08209 
0.10175 
0.14254 
0.10073 
0.11462 
0.17169 
0.18689 
0.09144 
0.13059 
0.12528 
0.08165 
0.07969 
0.16919 
0.14046 
0.24600 
0.09943 
0.01834 
0.06022 
0.11801 
0.10620 
0.12308 
0.12760 
0.14939 
0.19839 
0.10839 
0.12714 
0.11757 
0.12154 
0.08249 
0.13501 
0.15431 
0.16702 
0.09185 
0.14892 
0.09791 
0.22898 
0.06642 
0.18754 
0.06486 
0.06638 
0.15491 
0.21090 
0.12891 
0.12572 
0.14784 
0.11658 
0.15790 
0.12920 
0.12093 
0.06353 
0.08158 
0.11620 
0.12003 
0.15807 
0.09500 
0.14097 
0.11341 
0.15144 
0.13467 
0.16487 
0.11324 
0.09192 
0.20084 
0.17218 
0.08932 
0.12588 
0.14247 
0.12957 
0.10989 
0.10488 
0.17333 
0.18878 
0.20250 
0.06765 
0.06670 
0.06389 
0.14557 
0.28001 
0.08404 
0.15334 
0.06717 
0.26168 
0.17280 
0.09261 
0.12473 
0.11965 
0.11984 
0.04913 
0.16492 
0.10172 
0.05654 
0.15655 
0.05492 
0.12462 
0.07976 
0.16023 
0.16793 
0.13007 
0.15534 
0.08867 
0.08116 
0.07006 
0.10798 
0.13109 
0.20265 
0.13983 
0.10224 
0.07546 
0.09331 
0.10208 
0.15067 
0.21820 
0.08101 
0.07388 
0.07784 
0.09830 
0.05095 
0.09334 
0.20949 
0.14326 
0.14728 
0.09277 
0.08602 
0.12349 
0.07440 
0.09690 
0.07859 
0.15668 
0.18362 
0.15928 
0.14303 
0.06557 
0.10391 
0.08775 
0.08905 
0.05121 
0.20301 
0.11439 
0.05781 
0.14390 
0.08765 
0.10611 
0.11570 
0.15483 
0.17462 
0.15018 
0.07140 
0.18353 
0.18952 
0.12057 
0.18156 
0.07450 
0.25066 
0.11526 
0.17190 
0.06649 
0.05558 
0.19790 
0.16825 
0.08204 
0.06978 
0.32829 
0.15881 
0.07512 
0.16537 
0.28558 
0.33681 
0.13243 
0.17663 
0.17327 
0.10787 
0.23114 
0.08855 
0.12951 
0.15091 
0.10584 
0.09219 
0.03958 
0.18287 
0.20397 
0.09424 
0.14164 
0.06290 
0.15164 
0.09786 
0.04714 
0.16726 
0.15833 
0.11224 
0.12948 
0.08158 
0.07062 
0.10669 
0.05317 
0.14928 
0.24433 
0.03786 
0.11883 
0.16089 
0.13971 
0.10543 
0.20202 
0.12353 
0.19724 
0.13850 
0.16608 
0.28405 
0.10170 
0.13719 
0.03782 
0.08114 
0.13208 
0.10663 
0.04539 
0.08427 
0.23178 
0.10190 
0.10611 
0.11073 
0.08413 
0.14498 
0.13395 
0.06585 
0.10862 
0.15560 
0.13103 
0.10249 
0.25442 
0.17062 
0.12756 
0.06904 
0.07998 
0.16344 
0.12234 
0.10375 
0.12000 
0.14825 
0.14497 
0.11333 
0.15765 
0.14840 
0.07278 
0.15260 
0.13458 
0.07188 
0.13903 
0.10040 
0.30531 
0.11962 
0.13070 
0.25960 
0.06773 
0.09180 
0.16241 
0.19280 
0.10562 
0.13763 
0.14245 
0.05248 
0.07504 
0.14252 
0.14560 
0.07403 
0.11948 
0.17276 
0.14826 
0.07542 
0.22785 
0.06615 
0.16010 
0.14673 
0.15207 
0.10133 
0.13018 
0.12785 
0.16675 
0.14319 
0.14478 
0.14022 
0.12254 
0.06892 
0.07009 
0.18739 
0.13437 
0.12430 
0.14708 
0.06379 
0.09984 
0.10996 
0.21249 
0.13913 
0.15101 
0.12418 
0.11151 
0.04786 
0.18332 
0.09914 
0.27628 
0.22052 
0.15324 
0.13540 
0.14066 
0.07132 
0.17977 
0.08510 
0.09093 
0.15690 
0.18286 
0.08822 
0.10118 
0.07654 
0.18278 
0.15032 
0.27098 
0.12078 
0.14714 
0.05515 
0.15748 
0.09698 
0.10769 
0.12402 
0.12075 
0.11831 
0.16608 
0.12785 
0.10179 
0.06626 
0.06852 
0.06635 
0.08372 

 VECTORS Umean float 
0.05650 0.06400 -0.13100 
0.02100 0.08850 -0.01050 
0.07250 0.10500 -0.11900 
0.05850 0.08350 -0.11400 
0.10600 0.08850 -0.02600 
0.02200 0.08450 0.03050 
0.09400 0.05600 -0.09450 
0.02250 0.10350 0.02000 
0.08700 0.11650 -0.02750 
0.05850 0.16800 -0.10150 
0.01800 0.07650 -0.04000 
0.07650 0.09600 0.09600 
0.09450 0.12100 -0.06050 
-0.03100 0.08450 -0.15450 
0.09000 0.09100 -0.09600 
0.00600 0.08800 0.02300 
0.02850 0.10850 -0.02100 
0.02350 0.09950 -0.02900 
0.05300 0.11500 0.00550 
0.12550 0.09100 -0.06000 
-0.02900 -0.00050 -0.04000 
0.01950 0.06900 0.04800 
0.11900 0.12700 -0.10650 
0.04750 0.12250 -0.16350 
0.01650 0.07450 -0.02050 
0.03750 0.07900 0.00350 
0.06950 0.10750 -0.10950 
-0.01300 0.07300 -0.01200 
0.07150 0.09050 -0.15150 
0.05300 0.10550 -0.12150 
0.01500 0.10100 0.02200 
0.02600 0.12550 -0.19300 
0.04650 0.07150 -0.01050 
0.06200 0.08100 -0.08750 
0.05650 0.15500 -0.04350 
0.03850 0.15900 -0.00850 
0.02000 0.14000 0.11950 
0.06950 0.07850 -0.06450 
0.06050 0.08200 -0.00350 
0.07000 0.14900 -0.13100 
0.03600 0.11800 0.00200 
0.05650 0.12000 -0.02350 
0.07550 0.04300 0.02600 
0.03100 0.07300 -0.06900 
0.06950 0.08550 0.00650 
0.00250 0.07550 -0.00550 
0.02150 0.09550 -0.04850 
-0.00500 0.11950 0.00850 
0.03850 0.05800 -0.05500 
0.08600 0.13700 -0.03450 
0.08950 0.02150 -0.04850 
0.04200 0.12950 -0.10800 
0.07100 0.01450 -0.23400 
0.08200 0.03300 -0.06750 
0.05250 0.08950 0.01100 
0.02550 0.13050 0.04750 
0.01150 0.05800 0.06350 
0.05950 0.07700 -0.11000 
0.01500 0.10550 0.01800 
-0.02150 0.03850 -0.04100 
-0.03050 0.02650 -0.11400 
0.04650 0.05250 -0.06950 
0.11950 0.12100 -0.07900 
0.07850 0.09500 0.12850 
0.09450 0.12550 -0.06200 
-0.02000 0.10500 -0.01350 
0.15350 0.08250 -0.19750 
0.02400 0.07500 -0.13950 
0.13500 0.10150 -0.08100 
0.06700 -0.01550 -0.08750 
0.06800 0.12450 -0.11050 
0.08950 0.06500 -0.04100 
0.09950 0.08400 -0.04900 
0.05650 0.05900 -0.02450 
0.06150 0.12650 -0.08050 
0.02150 0.10150 -0.04850 
0.15500 0.09400 -0.02700 
-0.05400 0.15750 -0.05450 
0.07350 0.02650 -0.03700 
0.05750 0.09750 -0.05800 
0.04050 0.08800 -0.10950 
-0.04350 0.09750 -0.01100 
-0.02350 0.16500 -0.00600 
0.08400 0.19900 -0.13100 
0.04850 0.01750 -0.16150 
0.07550 0.10450 -0.17050 
0.02400 0.16000 0.03400 
0.06900 0.14350 0.01050 
0.00400 0.07950 -0.02900 
-0.01450 -0.09800 -0.05700 
0.00100 0.16450 -0.06350 
0.05600 0.08050 -0.01450 
0.08250 0.01500 -0.16800 
0.16700 0.11400 -0.06100 
0.08900 0.13300 -0.06100 
0.05600 0.10850 -0.08900 
0.02150 0.13800 0.05250 
0.05000 0.19150 -0.16050 
0.07500 0.06250 -0.10500 
0.04150 0.14000 -0.00850 
0.08150 0.10650 -0.05650 
0.11000 -0.00650 -0.15400 
0.00250 0.01400 -0.07750 
-0.01000 0.13650 0.04250 
0.02250 0.04650 -0.07100 
0.01500 0.08450 -0.02200 
0.06650 0.06350 -0.01600 
0.00900 0.12900 0.00450 
0.06000 0.06350 -0.03500 
-0.05850 0.10100 -0.01400 
0.05350 0.11900 -0.05150 
0.01300 0.13000 -0.06950 
0.03400 0.08200 -0.18400 
0.04850 -0.00150 -0.09900 
0.07650 0.10150 0.03600 
0.00900 0.03450 0.00800 
0.16900 0.13400 -0.14500 
0.03300 0.10150 -0.06100 
-0.00800 0.02900 -0.06050 
0.00950 0.14650 0.01300 
0.05050 0.15950 0.00100 
0.06500 -0.03250 -0.14600 
-0.00550 0.13650 -0.14350 
0.03900 0.13450 0.02100 
0.09700 0.16400 -0.15300 
0.01400 0.06650 0.04450 
-0.00050 0.15750 -0.03350 
0.07550 0.02350 -0.09400 
0.07650 0.05550 -0.07600 
0.01300 0.19900 -0.03800 
0.03550 0.14450 -0.07200 
-0.02000 0.04300 -0.01450 
0.03700 0.09900 -0.10450 
0.03050 0.09800 0.09700 
0.02250 0.06600 -0.11500 
-0.01100 0.08150 0.01600 
0.00900 0.09200 -0.03300 
0.03900 0.12750 -0.05450 
-0.06050 0.07300 -0.04250 
-0.01050 0.09400 -0.05950 
0.09650 0.08550 -0.18950 
0.10250 0.05250 -0.06400 
-0.00550 0.15150 -0.16700 
0.08600 0.17600 -0.22650 
-0.04300 0.06150 0.03500 
0.05250 0.13600 -0.05400 
0.09450 0.04200 -0.06400 
0.05100 0.00550 -0.08200 
-0.01900 0.01850 -0.08550 
0.09450 0.08650 -0.07150 
0.05450 0.04200 -0.02700 
-0.07400 0.07550 -0.00800 
0.10650 0.07350 -0.06350 
-0.02900 0.00550 -0.05850 
0.03350 0.03750 -0.06900 
0.07900 0.12400 0.03100 
-0.04300 0.04000 -0.01550 
0.01950 0.08750 0.08500 
0.05000 0.15100 -0.00950 
0.05650 0.01750 -0.06150 
0.07250 0.01850 -0.17800 
-0.01100 0.12550 -0.05550 
-0.06550 0.11450 -0.04950 
0.05400 0.08600 -0.00100 
0.01100 0.11800 0.00800 
0.09250 0.11700 -0.03000 
0.07650 0.07850 -0.10400 
0.07500 0.03400 -0.11900 
0.10650 0.07900 -0.12450 
0.01950 0.06800 -0.10150 
0.10050 0.03350 -0.03400 
0.01050 0.13200 0.06300 
0.08400 -0.00050 -0.16550 
0.08800 0.09400 -0.07100 
0.05600 0.08050 -0.05350 
0.06650 0.09650 -0.04300 
0.07150 -0.00050 -0.14250 
0.05450 0.09400 -0.07400 
0.03350 0.07250 -0.01900 
0.06650 0.04500 -0.06250 
0.06950 0.03800 -0.11850 
0.00600 0.09350 0.03700 
0.01850 0.03200 -0.10850 
0.09600 0.11600 -0.08250 
0.04750 0.17650 0.03900 
0.01300 0.09050 -0.00150 
0.09300 0.04100 -0.08200 
0.03450 0.11950 -0.01500 
0.01800 0.05900 -0.05350 
0.03800 0.05450 -0.04400 
0.01100 0.04400 -0.16300 
0.06850 -0.00550 0.12250 
0.13350 0.09400 -0.18400 
0.07250 0.06800 -0.00250 
0.01400 0.01050 -0.00550 
0.01100 0.05700 -0.01600 
0.04750 0.03700 -0.10150 
-0.02050 0.09300 -0.04700 
0.09800 -0.03250 -0.06700 
0.07950 0.02350 -0.09700 
0.05600 0.13850 -0.00000 
0.10200 0.14050 -0.09600 
0.01150 0.09600 0.04900 
0.01250 0.12650 -0.00250 
0.05250 0.09750 -0.03950 
0.08750 0.07400 -0.04050 
0.07400 0.01650 -0.03250 
0.11800 0.05200 0.04000 
0.08450 0.07300 -0.10650 
0.02050 0.15850 0.04850 
0.02100 0.08600 0.02450 
0.07000 0.12950 -0.02250 
0.09550 0.02150 -0.00200 
0.15750 0.10100 -0.13200 
-0.02400 -0.02300 -0.05750 
0.10000 0.10550 -0.11850 
0.06200 0.00950 -0.01650 
0.02350 -0.00850 -0.06150 
0.15250 0.00950 0.02550 
0.07300 0.19750 -0.01200 
0.05450 0.11400 0.02550 
0.02650 0.12000 -0.02650 
0.07450 0.12750 0.00700 
0.09950 0.03850 -0.04700 
-0.03750 0.14600 0.04700 
0.07850 0.04000 -0.09450 
0.00350 0.05900 -0.10550 
-0.02500 0.05450 0.02100 
0.06050 0.05450 -0.00500 
0.00950 0.04050 -0.10850 
0.07000 0.07400 -0.06350 
0.09350 0.01550 -0.12650 
-0.00850 0.09350 -0.01450 
-0.00100 0.10850 -0.09000 
0.07250 -0.01450 -0.08600 
0.08350 0.11350 -0.05550 
0.03150 0.11950 -0.05350 
0.04350 0.15850 -0.01300 
0.06700 -0.03200 -0.08550 
-0.06000 0.06800 -0.01500 
0.13350 0.15000 0.00400 
0.10750 0.03050 -0.13100 
-0.02950 0.07800 -0.03200 
0.07100 0.07300 -0.07400 
0.06800 0.08650 -0.09050 
0.02750 0.12600 -0.01250 
0.04800 -0.02900 0.09450 
0.01200 0.04050 -0.09600 
0.06350 0.04950 -0.15350 
0.14250 0.06400 -0.10600 
-0.03400 0.15150 -0.13000 
0.02950 0.05800 -0.01850 
0.02300 0.05600 0.02800 
0.03750 0.02550 -0.04500 
0.02000 0.12550 0.07100 
0.07350 0.06400 -0.26250 
0.03000 0.07550 0.02150 
0.07900 0.12550 -0.03900 
-0.02700 0.02650 -0.05550 
0.17100 0.10250 -0.16950 
0.04850 0.15150 -0.06750 
0.06500 0.02850 -0.05950 
-0.01600 0.07350 -0.09950 
0.08600 0.08300 -0.00550 
-0.02700 0.11200 0.03300 
0.03950 -0.02900 -0.00350 
0.03450 0.15900 -0.02700 
0.03100 0.06950 -0.06750 
-0.04500 0.03400 -0.00400 
0.04850 0.13600 -0.06050 
0.01550 0.03650 -0.03800 
0.04650 0.10250 -0.05350 
0.00450 0.07900 -0.01000 
0.09800 0.06300 -0.11000 
0.01800 0.15400 -0.06450 
0.02500 0.10400 0.07400 
0.05550 0.14300 0.02450 
0.01150 0.07300 -0.04900 
0.02200 0.06650 0.04100 
-0.00750 -0.05400 -0.04400 
0.02550 0.03750 -0.09800 
0.08050 0.08050 -0.06500 
0.04950 0.19650 0.00250 
0.02600 0.13500 0.02550 
0.05650 0.03650 0.07700 
0.04750 0.00400 -0.05850 
0.01150 0.01050 -0.09200 
0.00450 0.09200 -0.04400 
0.05800 0.13850 0.01250 
0.10900 0.15300 -0.11100 
0.03400 0.06950 0.02400 
-0.01950 -0.05400 -0.04650 
-0.03400 0.06350 -0.02950 
0.02850 0.08900 -0.03050 
0.04750 0.01200 0.01400 
0.01350 0.06250 0.06800 
0.02250 0.20700 -0.02300 
0.00550 0.12100 -0.07650 
0.09150 0.01800 -0.11400 
0.04900 0.04450 -0.06500 
0.01800 0.07800 -0.03150 
0.04750 0.11050 -0.02800 
0.03500 -0.06050 -0.02550 
0.02300 0.09400 0.00500 
-0.00750 0.07550 -0.02050 
0.03250 0.15000 0.03150 
0.05900 0.15850 -0.07150 
0.03000 0.14700 -0.05350 
-0.03750 0.13800 -0.00250 
0.04100 -0.02850 -0.04250 
0.00700 0.10350 0.00600 
-0.00850 0.06250 -0.06100 
0.05750 0.06150 0.02900 
-0.00400 0.05050 0.00750 
0.06150 0.03650 -0.19000 
-0.04600 0.10300 0.01900 
0.04000 -0.00450 0.04150 
-0.00600 0.14050 -0.03050 
0.01450 0.07350 -0.04550 
0.02950 0.10050 0.01700 
0.02150 0.07550 0.08500 
0.11100 0.08800 -0.06250 
-0.02100 -0.08150 -0.15300 
0.09100 0.09300 -0.07500 
0.05650 0.04300 -0.00750 
-0.04150 0.16450 0.07000 
0.04550 0.14400 -0.11450 
-0.02800 0.11700 0.00800 
-0.02950 0.15250 0.09400 
0.06250 0.00200 -0.04050 
0.11300 0.10700 -0.19650 
0.08950 0.05700 -0.04500 
0.14050 0.08100 -0.05700 
0.04350 0.03350 -0.03750 
0.01000 0.03500 0.04200 
-0.02100 0.03300 -0.19400 
0.10500 0.11000 -0.07200 
0.00500 0.08050 0.01500 
0.01700 0.06400 0.02200 
0.17600 0.04150 -0.27400 
0.08600 0.11850 -0.06150 
0.03650 0.06550 -0.00450 
0.04200 0.08000 -0.13850 
0.07050 0.06500 -0.26900 
0.12800 0.05850 -0.30600 
0.10750 0.02950 -0.07150 
0.05150 0.12650 0.11200 
0.11450 0.02800 -0.12700 