# vtk DataFile Version 2.0 
Xm, Ym, Zm, Uvecs, timestep 10160 
ASCII 
 
DATASET POLYDATA POINTS 460 float 
  3.684   7.956 -73.695 
  0.744  -0.324 -70.941 
 10.105   1.183 -65.931 
 13.861   5.438 -71.627 
 -2.564   3.170 -69.076 
 -7.158  -4.068 -74.043 
 14.751   2.798 -71.621 
  1.178   6.457 -71.997 
 -4.056 -11.865 -70.246 
  6.846   2.055 -72.466 
  6.511   7.260 -71.845 
  4.489   6.407 -73.061 
  9.595  -1.714 -70.995 
  5.112   2.864 -67.290 
 -6.829   9.052 -72.800 
 -7.681   1.037 -69.620 
  2.906  -1.881 -68.394 
 -0.961  -3.850 -70.978 
 -0.481  -7.228 -70.782 
 -0.283   2.109 -67.090 
 -3.100  -4.602 -70.593 
  6.101  12.300 -69.220 
  4.979   0.847 -71.617 
  5.298   3.845 -69.103 
  7.674  -6.873 -73.145 
  9.373  -3.149 -70.260 
 -7.351   2.430 -73.868 
  2.322  -6.316 -71.108 
  0.827   5.880 -66.327 
 -0.291  -4.353 -69.265 
 -5.488  -2.659 -69.397 
 -1.375  -8.759 -73.717 
  1.724   3.321 -65.936 
  4.377 -11.682 -73.254 
  2.731   0.379 -68.399 
  1.980  11.878 -71.645 
 -3.037 -10.779 -75.767 
  5.172  -2.542 -67.769 
 -9.120   5.938 -70.519 
 -2.885   5.415 -63.154 
 -1.105   4.058 -68.418 
 -1.236   7.849 -69.317 
 15.621  -4.255 -69.701 
-14.537  -0.774 -74.265 
 -4.828   7.770 -68.012 
 -3.896  -6.830 -68.417 
  1.635   5.253 -67.310 
 -8.895  10.496 -67.899 
  7.104   1.595 -65.983 
  3.410  10.773 -71.879 
-11.170   0.750 -69.916 
 -6.809   3.082 -74.268 
  6.563  -2.943 -66.236 
  0.948   7.668 -75.469 
 -4.789  12.516 -69.831 
  1.450   6.103 -66.375 
 -0.635   2.196 -70.635 
  4.289   6.435 -71.261 
 -1.814 -10.363 -69.768 
  6.287  -0.021 -69.587 
 -1.955 -12.070 -69.332 
 -2.239  -2.745 -71.334 
  5.532   3.833 -65.676 
 -4.185   6.257 -59.812 
 10.665   2.655 -65.856 
  1.744  -5.305 -64.221 
  3.032  -5.857 -67.209 
 -3.942  -5.393 -69.039 
  4.887  -0.784 -67.165 
  4.151   8.713 -69.934 
  3.226  -9.485 -63.191 
  9.294   4.415 -72.215 
 -9.226   3.640 -65.873 
  8.916  -6.250 -66.257 
 16.711   4.792 -70.267 
 -4.822  -6.882 -72.822 
  3.948   8.287 -66.672 
 -6.975  11.956 -64.279 
  2.229  -7.910 -61.445 
 11.917  10.688 -75.206 
 -2.373  -3.929 -71.466 
  6.545   8.720 -62.767 
-11.765  -6.505 -71.873 
 14.118   5.909 -66.987 
  0.001  -2.271 -64.106 
 -2.885   6.287 -63.485 
 -3.881  -3.673 -69.669 
  4.265  11.146 -67.106 
 12.148  -1.865 -69.203 
 15.660   7.091 -65.751 
 -5.120  -1.605 -70.459 
  3.138  -7.839 -64.695 
 -4.424 -11.654 -67.813 
  1.112   5.525 -63.185 
  3.413   6.643 -66.543 
  7.997   2.742 -66.388 
 -9.130  11.069 -62.062 
-11.413  12.534 -66.751 
  0.879  -6.445 -65.434 
  7.868  -4.245 -68.180 
-13.528  10.478 -70.804 
  2.299   6.258 -74.974 
  4.551  -7.989 -76.141 
  3.675   5.525 -67.326 
-10.567   9.052 -67.135 
 -8.718  -1.478 -74.488 
 13.642   4.037 -68.426 
  5.459  -0.860 -67.599 
 -5.119  -3.315 -67.808 
  2.176   3.192 -64.042 
 -5.490  12.307 -69.208 
 -8.857   8.681 -66.054 
-12.925   2.206 -70.703 
 -2.101  12.816 -63.058 
 -5.460   9.294 -64.166 
  1.955  10.362 -66.983 
  8.585 -10.389 -65.427 
  4.361   0.663 -71.779 
 -0.945  10.663 -71.945 
-12.919   7.859 -66.409 
 -7.917 -11.087 -69.189 
  1.161   0.641 -65.642 
 -8.695  10.810 -66.214 
  6.188  -1.114 -76.971 
 -6.344  -4.443 -75.299 
 -3.125   4.210 -66.023 
  6.915 -11.591 -71.846 
  8.736   0.027 -64.695 
 -9.893   6.593 -76.884 
 -3.095 -11.509 -69.732 
  1.586   2.212 -75.853 
 -0.691   5.866 -70.998 
 -9.732  10.765 -71.606 
 12.560   2.751 -67.709 
 -0.056   2.913 -61.838 
 14.079 -12.602 -70.277 
 -4.155 -10.948 -66.999 
 -8.665  10.295 -72.766 
  5.540  -2.022 -67.974 
 -4.848   4.938 -74.774 
  0.081   4.594 -63.311 
 -6.038 -10.645 -67.332 
 -5.914  -3.678 -70.541 
  7.031   1.540 -71.153 
 -2.828  -7.527 -63.181 
 -0.749   6.832 -68.061 
  6.165  -5.205 -70.430 
 11.489  -0.526 -67.775 
-12.811  -2.913 -67.006 
  3.400   4.095 -66.023 
  1.327  -1.799 -75.069 
  3.694   5.670 -68.583 
  2.738   1.657 -77.070 
 13.243  -4.172 -64.505 
 -5.572  -7.869 -74.304 
  5.979  -8.654 -69.965 
 14.847   9.061 -71.720 
  1.551  -3.445 -67.212 
 13.759   9.021 -73.356 
-13.632   9.363 -69.896 
 10.245 -12.906 -71.277 
  7.124   0.869 -71.609 
  2.396   3.130 -63.341 
  3.609  -7.021 -75.218 
-11.958 -12.078 -70.377 
-12.189  11.916 -66.584 
 -9.669   7.760 -63.635 
  4.833  -1.801 -69.341 
 -4.481  -7.753 -63.553 
  6.785  -6.662 -72.656 
-11.456   6.389 -69.119 
 16.218  -0.696 -67.656 
  4.694  -9.729 -62.981 
 -7.168   5.639 -75.850 
 -2.156   9.092 -73.064 
 -2.731   3.856 -72.112 
 -8.028   9.017 -70.373 
  1.520  -5.303 -71.548 
 -6.114   2.658 -68.691 
 11.522  -1.007 -71.126 
  3.302   0.612 -64.165 
  1.515  -7.901 -70.734 
 13.784   2.490 -68.474 
 11.224   3.648 -68.672 
 16.775   3.894 -68.962 
-12.046 -11.980 -72.739 
 -6.864   0.677 -65.560 
  8.409  -1.237 -71.297 
 -5.756  -7.944 -67.888 
 15.046   4.825 -68.522 
 -5.378 -10.975 -68.760 
  1.318  -5.246 -69.791 
 -2.002  11.099 -64.828 
 -2.511   1.446 -59.495 
  3.652   0.370 -71.382 
 11.256  -0.142 -73.836 
 15.439  -7.242 -67.411 
 -7.832  -9.805 -67.470 
 -3.487   0.384 -69.070 
 16.969   0.453 -67.337 
  6.821   5.197 -62.436 
 -7.124  -4.691 -72.022 
  8.751   2.599 -68.522 
 13.304  -1.980 -70.581 
  4.921 -10.005 -70.432 
 12.064   6.745 -69.584 
 -8.912  -2.439 -69.707 
  1.708 -11.317 -71.305 
  8.422  -1.614 -64.218 
  1.976  -3.096 -60.815 
 -5.502  11.273 -65.171 
 -5.906 -12.070 -67.395 
  1.369  10.902 -61.947 
  0.749   6.135 -68.126 
-12.429  -0.259 -65.460 
 -9.088   9.178 -73.059 
 12.410  11.841 -67.203 
  7.393   9.884 -69.483 
-12.302 -10.490 -73.549 
  5.409  10.886 -65.999 
-10.297  11.218 -64.756 
-13.755  -5.293 -73.453 
  5.277   2.712 -75.633 
 -8.140  -5.686 -73.377 
-14.099  -2.303 -67.931 
 11.421  -7.222 -70.436 
 17.193  -6.181 -69.537 
 -0.345  11.334 -71.584 
-12.733   4.340 -71.225 
 -8.415  -6.485 -71.147 
  5.117   9.343 -66.154 
  0.316   5.485 -66.450 
 13.939  -2.949 -70.637 
 -9.723   1.186 -76.332 
 14.145   2.734 -64.682 
  9.050  -1.204 -64.121 
 11.465  -2.859 -69.656 
 -4.986 -10.398 -66.172 
  1.713   7.630 -68.891 
  6.883   7.281 -65.297 
  4.918   4.809 -65.447 
 12.282 -11.977 -71.659 
 16.916   5.062 -66.791 
  6.644  -2.784 -59.167 
-10.615   9.499 -75.480 
  7.362  -1.494 -61.963 
 13.715  11.698 -67.070 
 -0.187   1.861 -77.163 
 -2.734  -8.410 -61.055 
-12.513  11.200 -65.154 
 10.288   6.568 -65.916 
  3.537  -8.108 -67.947 
 13.214   5.861 -67.948 
-15.802   1.460 -74.569 
 16.441   2.076 -65.746 
  9.933 -11.329 -71.663 
 12.112  -6.133 -72.227 
 -5.108   2.414 -66.744 
-15.417   2.419 -76.630 
  4.471  10.346 -65.706 
 11.595  -5.026 -71.126 
-13.146  -7.612 -76.591 
 17.218   7.104 -67.317 
  6.724 -12.924 -69.712 
 13.014  -4.619 -67.058 
  0.265  10.464 -71.176 
 -1.571  -8.165 -72.201 
 12.989  -1.398 -69.760 
  4.688   1.446 -72.242 
 -0.118   8.857 -72.807 
 11.640  -7.354 -64.171 
 -8.236  -2.407 -74.056 
  8.366  12.260 -67.532 
-10.378   2.625 -63.576 
 10.088   9.719 -68.433 
  6.691  -2.015 -76.645 
 -8.265   2.551 -65.920 
 -7.825  13.316 -62.945 
  9.997   9.350 -68.001 
 -2.285   1.498 -67.490 
 14.916   6.240 -67.766 
  2.103   7.673 -67.478 
  4.680  -6.467 -72.388 
  5.231  -4.702 -72.900 
-10.236 -10.477 -60.642 
  2.061   4.104 -69.240 
  2.450  -1.317 -70.862 
 -9.421   3.286 -71.162 
-10.002   9.473 -75.418 
  8.575  -4.416 -66.327 
 18.389  -9.415 -69.763 
 14.196  -8.498 -64.182 
 -9.837   4.197 -68.519 
 -9.094  -7.970 -74.081 
 -8.747   1.194 -65.943 
-12.148   9.372 -63.867 
  7.838  -3.323 -76.304 
 -7.309  -7.816 -62.932 
 -3.333 -10.541 -60.434 
  7.805   4.300 -72.839 
  1.464  -6.157 -75.046 
  8.457  10.175 -73.401 
 15.198   5.978 -68.176 
  1.558   7.362 -73.087 
 -3.369 -11.192 -66.349 
  1.234   0.142 -59.284 
 -2.357   4.665 -67.030 
  3.806  -7.907 -62.450 
  1.669 -12.642 -67.220 
  1.248   1.232 -63.127 
-10.922  -9.120 -63.767 
-11.438 -10.604 -65.438 
 -0.742  11.399 -72.861 
  9.623   2.923 -70.820 
 -8.908   5.676 -66.584 
-11.543   3.220 -75.409 
  6.902   2.652 -67.705 
 -7.059   7.165 -73.240 
 -7.267  -1.055 -69.978 
-12.137  -0.863 -72.623 
  4.511 -12.092 -75.403 
  1.906  -6.641 -67.650 
 -2.760  11.215 -73.220 
 -3.088 -10.331 -65.944 
 -8.460 -11.197 -68.308 
 -6.066  -3.105 -58.918 
-11.146  -1.308 -75.926 
 -9.354 -10.246 -64.998 
 -2.899   5.121 -57.688 
 -9.930  10.746 -69.369 
  3.184  11.654 -60.603 
-14.076  -4.845 -71.681 
 17.892  -0.059 -68.351 
 -7.619  10.637 -73.669 
 -0.604  -4.279 -61.023 
  6.180  12.310 -64.370 
 -4.213  -6.229 -64.543 
  6.333  -9.815 -73.057 
 10.156   8.889 -75.444 
 13.971  -7.883 -68.986 
 -8.508  -3.560 -74.370 
-14.371  12.170 -71.985 
  9.662   7.340 -63.606 
 -8.601  -7.797 -70.248 
  2.251   8.950 -69.739 
 -1.183  -2.797 -61.115 
-13.674   0.683 -77.308 
 15.254  -6.752 -74.570 
 11.599  -9.177 -62.779 
-13.599   1.319 -69.385 
-14.196   5.617 -74.075 
  7.305   0.756 -60.032 
  8.283   5.066 -75.037 
 16.508  -4.505 -71.557 
 16.636  -9.939 -68.512 
 18.243  -7.548 -68.532 
 10.211   8.324 -60.970 
  1.849  11.561 -75.117 
 -0.491   9.247 -70.053 
 -8.016   3.212 -64.035 
 11.051  -5.688 -71.327 
  4.994  -4.209 -67.758 
 -6.043   6.411 -71.093 
  7.309 -11.837 -64.865 
-13.031   3.727 -77.709 
 10.822  -0.794 -63.134 
-15.244   5.812 -70.727 
  2.762  -8.892 -74.581 
 11.640   8.906 -69.267 
 15.326   7.723 -76.715 
 -7.240 -11.692 -76.029 
 -2.078 -11.839 -75.495 
-12.125   7.707 -69.692 
  5.356   2.685 -67.874 
 13.717 -12.912 -68.648 
 11.703   9.602 -65.156 
-10.477  -8.248 -73.975 
  7.779   6.220 -74.435 
  1.276  -2.252 -73.326 
 13.919  -9.290 -64.763 
-11.887   4.345 -75.933 
 -6.227  10.711 -60.669 
  9.564  -8.154 -65.323 
  8.134  11.940 -63.083 
 -3.608  -5.663 -74.935 
-12.775  -0.873 -65.035 
  3.926   0.637 -59.753 
  1.009  -0.883 -75.456 
 -5.377  -2.445 -70.900 
 -6.295 -11.640 -68.712 
 14.031  -5.306 -69.756 
 13.468  -0.485 -74.561 
 -2.656   4.824 -65.171 
  7.579  -7.781 -75.248 
-12.637   6.280 -62.345 
 11.953 -10.017 -59.201 
 14.426  12.153 -74.739 
 -2.479   8.654 -65.929 
-13.463  -4.918 -74.550 
-11.454   1.949 -66.350 
 -3.755   9.605 -68.160 
 -9.999   5.513 -62.146 
 14.463   0.068 -64.358 
 11.879  13.129 -63.060 
 11.499   3.202 -59.232 
-12.286   5.982 -69.430 
 16.238  -8.878 -64.505 
 12.224  -9.812 -70.345 
 14.316 -12.524 -67.987 
-10.016  -0.515 -73.688 
  5.401  -7.580 -73.237 
  5.295   6.078 -71.374 
-10.623  -4.960 -70.746 
 -5.174   0.829 -67.293 
-12.677  10.967 -72.305 
 12.936  -3.003 -70.264 
 11.992  11.570 -69.427 
 -6.395   4.872 -77.227 
 -3.460  -3.633 -65.650 
 -5.673   1.185 -73.865 
 12.826  12.092 -67.408 
 14.030   6.193 -66.814 
 15.014  11.864 -73.037 
 -5.075   0.053 -68.571 
 -0.567   6.335 -60.046 
 15.240  10.444 -64.153 
  1.726   6.194 -64.000 
 13.427  -1.592 -74.244 
 15.523   3.006 -69.354 
 -9.620  -5.937 -71.697 
  4.768  11.749 -67.261 
  4.534   4.591 -61.486 
 12.413   3.462 -67.962 
-13.128  11.611 -74.082 
 -5.828 -12.418 -71.451 
  4.393   6.389 -64.335 
 -1.900  -6.091 -65.941 
 -7.150  -4.218 -66.338 
 -3.631  -8.692 -68.662 
 11.374   1.740 -69.599 
  1.401  -6.738 -67.828 
  1.938  -3.563 -64.868 
  4.300  -7.804 -68.969 
  1.309   5.527 -67.293 
  9.099 -12.034 -71.685 
  1.162  -2.251 -74.157 
 15.541   5.142 -71.906 
  1.421   3.556 -75.800 
  3.471   8.515 -75.341 
  4.837  -9.670 -74.011 
 -7.901 -10.348 -64.486 
  3.569  -4.066 -60.066 
  8.384   0.570 -64.444 
 -9.247   3.007 -71.473 
 14.601  -6.970 -67.872 
 -7.682   7.617 -66.343 
 -1.402   8.509 -68.046 
  8.024  12.016 -70.246 
 -1.688 -11.124 -70.689 
 -0.048  -3.070 -71.623 

 VERTICES 460 920 
1 0 
1 1 
1 2 
1 3 
1 4 
1 5 
1 6 
1 7 
1 8 
1 9 
1 10 
1 11 
1 12 
1 13 
1 14 
1 15 
1 16 
1 17 
1 18 
1 19 
1 20 
1 21 
1 22 
1 23 
1 24 
1 25 
1 26 
1 27 
1 28 
1 29 
1 30 
1 31 
1 32 
1 33 
1 34 
1 35 
1 36 
1 37 
1 38 
1 39 
1 40 
1 41 
1 42 
1 43 
1 44 
1 45 
1 46 
1 47 
1 48 
1 49 
1 50 
1 51 
1 52 
1 53 
1 54 
1 55 
1 56 
1 57 
1 58 
1 59 
1 60 
1 61 
1 62 
1 63 
1 64 
1 65 
1 66 
1 67 
1 68 
1 69 
1 70 
1 71 
1 72 
1 73 
1 74 
1 75 
1 76 
1 77 
1 78 
1 79 
1 80 
1 81 
1 82 
1 83 
1 84 
1 85 
1 86 
1 87 
1 88 
1 89 
1 90 
1 91 
1 92 
1 93 
1 94 
1 95 
1 96 
1 97 
1 98 
1 99 
1 100 
1 101 
1 102 
1 103 
1 104 
1 105 
1 106 
1 107 
1 108 
1 109 
1 110 
1 111 
1 112 
1 113 
1 114 
1 115 
1 116 
1 117 
1 118 
1 119 
1 120 
1 121 
1 122 
1 123 
1 124 
1 125 
1 126 
1 127 
1 128 
1 129 
1 130 
1 131 
1 132 
1 133 
1 134 
1 135 
1 136 
1 137 
1 138 
1 139 
1 140 
1 141 
1 142 
1 143 
1 144 
1 145 
1 146 
1 147 
1 148 
1 149 
1 150 
1 151 
1 152 
1 153 
1 154 
1 155 
1 156 
1 157 
1 158 
1 159 
1 160 
1 161 
1 162 
1 163 
1 164 
1 165 
1 166 
1 167 
1 168 
1 169 
1 170 
1 171 
1 172 
1 173 
1 174 
1 175 
1 176 
1 177 
1 178 
1 179 
1 180 
1 181 
1 182 
1 183 
1 184 
1 185 
1 186 
1 187 
1 188 
1 189 
1 190 
1 191 
1 192 
1 193 
1 194 
1 195 
1 196 
1 197 
1 198 
1 199 
1 200 
1 201 
1 202 
1 203 
1 204 
1 205 
1 206 
1 207 
1 208 
1 209 
1 210 
1 211 
1 212 
1 213 
1 214 
1 215 
1 216 
1 217 
1 218 
1 219 
1 220 
1 221 
1 222 
1 223 
1 224 
1 225 
1 226 
1 227 
1 228 
1 229 
1 230 
1 231 
1 232 
1 233 
1 234 
1 235 
1 236 
1 237 
1 238 
1 239 
1 240 
1 241 
1 242 
1 243 
1 244 
1 245 
1 246 
1 247 
1 248 
1 249 
1 250 
1 251 
1 252 
1 253 
1 254 
1 255 
1 256 
1 257 
1 258 
1 259 
1 260 
1 261 
1 262 
1 263 
1 264 
1 265 
1 266 
1 267 
1 268 
1 269 
1 270 
1 271 
1 272 
1 273 
1 274 
1 275 
1 276 
1 277 
1 278 
1 279 
1 280 
1 281 
1 282 
1 283 
1 284 
1 285 
1 286 
1 287 
1 288 
1 289 
1 290 
1 291 
1 292 
1 293 
1 294 
1 295 
1 296 
1 297 
1 298 
1 299 
1 300 
1 301 
1 302 
1 303 
1 304 
1 305 
1 306 
1 307 
1 308 
1 309 
1 310 
1 311 
1 312 
1 313 
1 314 
1 315 
1 316 
1 317 
1 318 
1 319 
1 320 
1 321 
1 322 
1 323 
1 324 
1 325 
1 326 
1 327 
1 328 
1 329 
1 330 
1 331 
1 332 
1 333 
1 334 
1 335 
1 336 
1 337 
1 338 
1 339 
1 340 
1 341 
1 342 
1 343 
1 344 
1 345 
1 346 
1 347 
1 348 
1 349 
1 350 
1 351 
1 352 
1 353 
1 354 
1 355 
1 356 
1 357 
1 358 
1 359 
1 360 
1 361 
1 362 
1 363 
1 364 
1 365 
1 366 
1 367 
1 368 
1 369 
1 370 
1 371 
1 372 
1 373 
1 374 
1 375 
1 376 
1 377 
1 378 
1 379 
1 380 
1 381 
1 382 
1 383 
1 384 
1 385 
1 386 
1 387 
1 388 
1 389 
1 390 
1 391 
1 392 
1 393 
1 394 
1 395 
1 396 
1 397 
1 398 
1 399 
1 400 
1 401 
1 402 
1 403 
1 404 
1 405 
1 406 
1 407 
1 408 
1 409 
1 410 
1 411 
1 412 
1 413 
1 414 
1 415 
1 416 
1 417 
1 418 
1 419 
1 420 
1 421 
1 422 
1 423 
1 424 
1 425 
1 426 
1 427 
1 428 
1 429 
1 430 
1 431 
1 432 
1 433 
1 434 
1 435 
1 436 
1 437 
1 438 
1 439 
1 440 
1 441 
1 442 
1 443 
1 444 
1 445 
1 446 
1 447 
1 448 
1 449 
1 450 
1 451 
1 452 
1 453 
1 454 
1 455 
1 456 
1 457 
1 458 
1 459 
POINT_DATA 460 
SCALARS MeanU double 1 
LOOKUP_TABLE default
0.05534 
0.18665 
0.18690 
0.16757 
0.17149 
0.08774 
0.16075 
0.12764 
0.16902 
0.29532 
0.11108 
0.12249 
0.29194 
0.17957 
0.21964 
0.18578 
0.24458 
0.23095 
0.11686 
0.10839 
0.19932 
0.08658 
0.19774 
0.28580 
0.17086 
0.28458 
0.19327 
0.22852 
0.13046 
0.27248 
0.22486 
0.08906 
0.13569 
0.11596 
0.23201 
0.12949 
0.13212 
0.17057 
0.15710 
0.09681 
0.15516 
0.11523 
0.13782 
0.17437 
0.13112 
0.18542 
0.10953 
0.11713 
0.16999 
0.08555 
0.21794 
0.16884 
0.27105 
0.10156 
0.10412 
0.12102 
0.17087 
0.18250 
0.23805 
0.24411 
0.08878 
0.17195 
0.21478 
0.12829 
0.09391 
0.26820 
0.25862 
0.22363 
0.08882 
0.00187 
0.08441 
0.18716 
0.17112 
0.24783 
0.16095 
0.28676 
0.09316 
0.13705 
0.22610 
0.28696 
0.14591 
0.10023 
0.06811 
0.12477 
0.31895 
0.16531 
0.18136 
0.06383 
0.21623 
0.13677 
0.22076 
0.16727 
0.05509 
0.22758 
0.10714 
0.10667 
0.13203 
0.10011 
0.22105 
0.26957 
0.28845 
0.20204 
0.10591 
0.10907 
0.07267 
0.12139 
0.18103 
0.11012 
0.32718 
0.24774 
0.07389 
0.06664 
0.20257 
0.14410 
0.07939 
0.09907 
0.20950 
0.18375 
0.09323 
0.14368 
0.14597 
0.19663 
0.09642 
0.21599 
0.12956 
0.16923 
0.12788 
0.24850 
0.12952 
0.11185 
0.20201 
0.18094 
0.13533 
0.04473 
0.12124 
0.10417 
0.12449 
0.14635 
0.14880 
0.19951 
0.18184 
0.15969 
0.18902 
0.33076 
0.20178 
0.20825 
0.36134 
0.24224 
0.29274 
0.20141 
0.14418 
0.17570 
0.18815 
0.20515 
0.10557 
0.11605 
0.19328 
0.27977 
0.17632 
0.15752 
0.12758 
0.27190 
0.11514 
0.12175 
0.19896 
0.08931 
0.09250 
0.18535 
0.29882 
0.19090 
0.07560 
0.09497 
0.10080 
0.18263 
0.12335 
0.24624 
0.13075 
0.20442 
0.24060 
0.15522 
0.11965 
0.11400 
0.09032 
0.11707 
0.19210 
0.10221 
0.16895 
0.32476 
0.15845 
0.18331 
0.06682 
0.22697 
0.09376 
0.05605 
0.20817 
0.20097 
0.08995 
0.12092 
0.23426 
0.17346 
0.04019 
0.15315 
0.12336 
0.13780 
0.10202 
0.11877 
0.10846 
0.10084 
0.28198 
0.26310 
0.10406 
0.12062 
0.11434 
0.10147 
0.16264 
0.22226 
0.12597 
0.08934 
0.13126 
0.04366 
0.08113 
0.16766 
0.20437 
0.11148 
0.21078 
0.08649 
0.10380 
0.11950 
0.13387 
0.20461 
0.06728 
0.11695 
0.12544 
0.15071 
0.10855 
0.28631 
0.29731 
0.22984 
0.07302 
0.13144 
0.23971 
0.10449 
0.15563 
0.17915 
0.18587 
0.21198 
0.18767 
0.16975 
0.19264 
0.09847 
0.14654 
0.13235 
0.10525 
0.20832 
0.11977 
0.08707 
0.15398 
0.14905 
0.16055 
0.05671 
0.28315 
0.15035 
0.26852 
0.09162 
0.18688 
0.07987 
0.09863 
0.17302 
0.23666 
0.04631 
0.13132 
0.06873 
0.17796 
0.23360 
0.07559 
0.23897 
0.21988 
0.14260 
0.06108 
0.15220 
0.15181 
0.06518 
0.07215 
0.15880 
0.25950 
0.12574 
0.16717 
0.15222 
0.17124 
0.29408 
0.07231 
0.15784 
0.12895 
0.12617 
0.19567 
0.09540 
0.26359 
0.25883 
0.09302 
0.25392 
0.08497 
0.10587 
0.17197 
0.18245 
0.24580 
0.08482 
0.21415 
0.07661 
0.14155 
0.15597 
0.08487 
0.17681 
0.09598 
0.16393 
0.10123 
0.09436 
0.18909 
0.17114 
0.22946 
0.15163 
0.11249 
0.16447 
0.12734 
0.24671 
0.20989 
0.22763 
0.14919 
0.09993 
0.09195 
0.05391 
0.13498 
0.16008 
0.11043 
0.18954 
0.19640 
0.10205 
0.34409 
0.08697 
0.26667 
0.12964 
0.16704 
0.24001 
0.06771 
0.19924 
0.06431 
0.29036 
0.17066 
0.12024 
0.02546 
0.17053 
0.13688 
0.11306 
0.21866 
0.11946 
0.08348 
0.12255 
0.06946 
0.23809 
0.09139 
0.22798 
0.29840 
0.27061 
0.23927 
0.08794 
0.18717 
0.13190 
0.21102 
0.11550 
0.12041 
0.15292 
0.09641 
0.12909 
0.15895 
0.22424 
0.08712 
0.08126 
0.15157 
0.11615 
0.19247 
0.11084 
0.12360 
0.15988 
0.12477 
0.10544 
0.16030 
0.15335 
0.08664 
0.12580 
0.25054 
0.14311 
0.16915 
0.19545 
0.10172 
0.13345 
0.28427 
0.20735 
0.06476 
0.12471 
0.14972 
0.23458 
0.08100 
0.14941 
0.03889 
0.07587 
0.09564 
0.15309 
0.04962 
0.04994 
0.11001 
0.11501 
0.10566 
0.21876 
0.05289 
0.22595 
0.23860 
0.13656 
0.11237 
0.12342 
0.34044 
0.13392 
0.20622 
0.14368 
0.15082 
0.23029 
0.12268 
0.08344 
0.15017 
0.22261 
0.15953 
0.08803 
0.13820 
0.11941 
0.04757 
0.16693 
0.08882 
0.16320 
0.30251 
0.21985 
0.09428 
0.11528 
0.15938 
0.25759 
0.14533 
0.14926 
0.12394 
0.11684 
0.11892 
0.15979 
0.11176 
0.06903 
0.05864 
0.23957 
0.20487 
0.23417 
0.13185 
0.15470 
0.09051 
0.06942 
0.05550 
0.24260 

 VECTORS Umean float 
0.05250 0.01400 -0.01050 
0.07850 0.13950 -0.09600 
0.06800 0.14250 -0.10000 
0.00950 0.14350 -0.08600 
0.03450 0.12150 -0.11600 
-0.03100 0.03100 -0.07600 
0.02800 0.15100 -0.04750 
-0.00400 0.02550 -0.12500 
0.12050 0.06950 -0.09600 
0.06550 0.11150 -0.26550 
0.07400 0.06150 -0.05550 
0.03500 0.03350 -0.11250 
0.03850 0.07500 -0.27950 
-0.01600 0.07250 -0.16350 
-0.00550 0.15350 -0.15700 
0.05350 0.13700 -0.11350 
0.12150 0.08150 -0.19600 
0.04200 0.09450 -0.20650 
0.03950 0.07100 -0.08400 
0.02750 0.10450 -0.00850 
-0.00100 0.14800 -0.13350 
-0.03000 -0.08000 -0.01400 
0.09750 0.10600 -0.13550 
0.08300 0.11200 -0.24950 
0.03250 0.04350 -0.16200 
0.16000 0.06900 -0.22500 
0.13300 0.12650 -0.06050 
0.12950 0.08600 -0.16750 
0.04300 0.06100 -0.10700 
0.10550 0.10550 -0.22800 
-0.00700 0.10350 -0.19950 
0.03450 0.01850 -0.08000 
0.09350 0.08250 -0.05350 
0.08800 0.07550 -0.00150 
0.14950 0.17200 -0.04350 
-0.11650 -0.05650 -0.00150 
0.08200 0.07350 -0.07300 
0.08250 0.03750 -0.14450 
0.01450 0.10550 -0.11550 
0.07950 0.05450 -0.00900 
0.04900 0.04850 -0.13900 
-0.08600 0.04900 -0.05900 
0.05350 -0.00200 -0.12700 
0.01950 0.13550 -0.10800 
-0.06900 0.08250 -0.07500 
0.05000 0.02700 -0.17650 
0.02850 0.02400 -0.10300 
-0.02000 0.05400 -0.10200 
-0.03000 0.08350 -0.14500 
-0.04350 -0.07350 0.00500 
0.15400 0.12800 -0.08600 
0.14350 0.08200 -0.03450 
0.12050 0.01200 -0.24250 
-0.00850 0.09950 -0.01850 
-0.09200 0.04300 0.02300 
0.01650 0.05100 -0.10850 
0.04600 0.05800 -0.15400 
0.03400 0.05550 -0.17050 
0.13100 0.03850 -0.19500 
0.09000 0.03300 -0.22450 
0.07300 0.05050 0.00150 
0.00600 0.17100 -0.01700 
-0.00100 0.13750 -0.16500 
0.09100 0.07600 0.04900 
0.01100 0.08250 -0.04350 
0.01100 -0.01600 -0.26750 
0.09450 -0.04750 -0.23600 
0.10400 0.13150 -0.14800 
0.06150 0.02250 -0.06000 
-0.00100 0.00050 -0.00150 
-0.02850 0.03850 -0.06950 
0.11700 0.01300 -0.14550 
0.16000 0.06050 -0.00450 
0.11250 0.04350 -0.21650 
0.09300 0.10750 -0.07550 
0.07100 0.14900 -0.23450 
0.02500 0.01150 -0.08900 
-0.08400 0.10500 0.02650 
-0.05650 0.10700 -0.19100 
0.14700 0.12650 -0.21150 
-0.01600 0.14500 0.00300 
0.07700 0.06250 0.01450 
0.00850 0.02800 -0.06150 
0.05100 0.09350 -0.06500 
0.15300 0.10600 -0.25900 
0.12500 0.10650 -0.01900 
0.07400 0.06450 -0.15250 
-0.02850 0.05550 -0.01350 
0.08850 0.02650 -0.19550 
-0.08800 0.09000 -0.05350 
0.02350 0.13050 -0.17650 
0.02450 0.16400 -0.02200 
0.03950 0.00550 -0.03800 
-0.01600 0.08250 -0.21150 
0.04250 0.01900 -0.09650 
-0.03900 0.01250 -0.09850 
0.02650 0.12250 0.04150 
0.05250 0.08400 0.01450 
0.04200 0.01500 -0.21650 
0.17750 0.07750 -0.18750 
0.08550 0.19900 -0.19050 
-0.00100 0.10600 -0.17200 
0.07300 0.03650 -0.06750 
0.02300 -0.00500 -0.10650 
-0.02250 0.02200 -0.06550 
0.01000 0.11550 -0.03600 
0.03900 0.12450 -0.12550 
0.07100 0.01900 -0.08200 
0.14200 0.05800 -0.28900 
0.05300 0.03800 -0.23900 
-0.05600 0.04800 -0.00450 
-0.03450 0.03300 -0.04650 
0.15900 0.12300 -0.02500 
-0.08450 0.05100 0.10500 
-0.00600 0.07050 -0.03600 
-0.07500 -0.02300 0.06050 
0.18100 -0.02500 -0.10250 
0.11900 0.10850 -0.08850 
-0.06950 0.05900 0.01950 
-0.07850 0.09450 -0.07450 
0.11100 0.06900 0.06500 
0.08650 -0.00550 -0.17650 
-0.02250 0.05350 -0.07700 
0.10350 0.02800 -0.18750 
0.03950 0.06400 -0.10550 
0.08500 0.07850 -0.12350 
0.10950 0.06600 0.00250 
0.14350 0.03950 -0.19900 
0.03450 0.08100 -0.09500 
0.09050 0.06350 -0.01700 
0.01700 0.09400 -0.17800 
0.06500 0.08900 -0.14350 
0.02350 0.05900 -0.11950 
-0.00350 0.03850 -0.02250 
0.11350 0.02200 -0.03650 
0.07950 -0.03050 -0.06000 
0.07250 0.03350 -0.09550 
-0.00200 0.11500 -0.09050 
0.04750 -0.00200 -0.14100 
0.06350 0.11650 -0.14900 
-0.01300 0.02600 -0.17950 
0.10500 0.11800 0.02350 
0.09450 0.11500 -0.11650 
0.12250 0.13600 -0.27550 
0.01200 0.01300 -0.20100 
0.10200 0.11500 -0.14050 
0.21200 0.02550 -0.29150 
0.06000 0.03200 -0.23250 
0.17350 0.21400 0.09900 
0.13800 0.05500 -0.13600 
0.06050 0.02950 -0.12750 
0.05450 0.06100 -0.15550 
0.11200 0.13400 -0.07000 
0.08050 0.00850 -0.18850 
-0.00350 0.02050 -0.10350 
0.08550 0.04000 -0.06750 
0.07850 0.07150 -0.16150 
0.11200 0.06500 -0.24800 
0.09350 0.08350 -0.12400 
0.01600 0.09450 -0.12500 
0.08750 0.07250 -0.05800 
0.14550 0.09850 -0.20750 
-0.03400 0.01050 -0.10950 
0.07600 0.01450 -0.09400 
0.19000 0.00800 -0.05850 
0.06850 0.02800 -0.05000 
0.04800 0.06000 -0.05150 
0.10400 0.13850 -0.06600 
0.15550 0.00950 -0.25500 
0.08100 0.07550 -0.15550 
0.02100 0.02550 -0.06800 
-0.05600 0.07650 -0.00550 
-0.05300 0.05350 -0.06700 
0.08350 0.06350 -0.14950 
-0.03800 0.11050 0.03950 
0.07450 0.17400 -0.15750 
-0.02050 0.08350 -0.09850 
0.12900 0.04350 -0.15250 
0.10000 0.20750 -0.06950 
0.12150 0.01450 -0.09550 
0.10100 0.02400 -0.05950 
0.06100 0.02500 -0.09300 
0.00200 0.08950 0.01200 
0.10200 -0.03000 -0.04900 
0.07800 0.17150 -0.03750 
0.07850 0.04450 0.04800 
0.14650 0.08050 -0.02450 
0.14400 0.05150 -0.28650 
0.11100 0.08550 -0.07400 
0.04000 0.11200 -0.13950 
0.04050 0.04000 -0.03500 
0.08300 0.08700 -0.19250 
-0.07300 0.04450 0.03850 
0.04000 0.02850 -0.02700 
0.15350 0.11700 -0.07800 
0.13250 0.03050 -0.14800 
0.07450 -0.04050 -0.03000 
0.08600 0.08500 0.00100 
0.08500 0.16000 -0.14850 
-0.02300 0.14800 -0.08750 
0.02200 -0.02250 -0.02500 
0.08500 0.07700 -0.10150 
0.02000 0.00750 -0.12150 
0.02550 0.08850 -0.10250 
0.07800 0.04650 -0.04650 
0.03750 0.10050 -0.05100 
0.08700 0.06250 -0.01700 
0.07350 0.06750 0.01450 
0.09450 0.04400 -0.26200 
0.08400 0.06000 -0.24200 
-0.05250 0.08850 -0.01550 
0.09450 0.07400 -0.01200 
0.05750 0.09850 -0.00800 
0.03700 0.03800 -0.08650 
0.07350 0.14450 -0.01300 
-0.02450 0.18800 -0.11600 
0.11750 0.04100 -0.01950 
-0.01150 -0.08050 -0.03700 
0.05500 0.11900 -0.00650 
-0.00750 0.01300 0.04100 
0.02850 0.07300 0.02100 
0.02650 0.10500 -0.12800 
0.06600 0.06950 -0.18050 
0.01150 0.01750 -0.10950 
0.12550 0.16050 0.05400 
0.07300 0.00600 -0.04600 
0.02800 -0.02950 -0.09550 
-0.10400 0.05150 -0.02850 
0.06500 0.08300 -0.08250 
0.09800 0.17850 -0.02000 
-0.00400 0.05200 0.04250 
0.03700 0.06050 -0.09300 
0.03150 0.05350 -0.10900 
0.05350 0.06500 -0.12500 
-0.02050 0.10350 0.02550 
0.06450 0.02300 -0.27800 
0.12850 -0.00750 -0.26800 
0.20500 0.10350 -0.00950 
-0.03000 0.02150 -0.06300 
0.11850 0.05650 0.00650 
0.10850 0.15750 -0.14450 
0.05100 -0.03550 -0.08400 
0.04150 0.09000 -0.12000 
0.13500 0.08550 -0.08100 
0.04650 0.16600 -0.06950 
0.13750 0.06650 -0.14700 
0.13800 -0.09550 0.08400 
0.06150 0.05850 -0.14700 
-0.11700 0.03700 -0.14850 
0.09700 -0.00400 -0.01650 
0.10750 -0.02650 -0.09600 
0.13000 -0.01150 -0.02200 
0.04200 0.08850 -0.03850 
0.06000 0.19900 -0.01400 
-0.06100 0.05200 -0.08900 
0.04900 0.04050 -0.05950 
0.10400 0.03350 -0.10850 
0.03900 0.08300 -0.11750 
-0.02000 0.12400 -0.10000 
-0.00500 0.05550 0.01050 
0.07250 -0.05800 -0.26750 
-0.06050 0.08900 -0.10500 
-0.13150 0.16950 -0.16150 
0.08650 0.02650 -0.01450 
0.09550 0.09900 -0.12650 
-0.04850 0.06250 0.01100 
0.04900 0.04550 -0.07250 
0.04300 0.11050 -0.12600 
0.10850 0.12850 -0.16650 
0.02150 0.04050 0.00650 
-0.00150 0.01850 -0.13000 
-0.03450 0.05800 -0.01300 
-0.08700 -0.09600 0.12200 
0.16750 0.09250 0.13400 
0.04100 -0.02900 -0.05650 
0.04550 0.03800 -0.23150 
0.15500 0.15150 0.03700 
-0.08350 0.11150 0.03050 
-0.01250 -0.01450 -0.05800 
0.06250 0.09300 -0.10300 
0.05000 0.09250 -0.10950 
-0.01150 -0.00450 -0.06400 
0.07000 -0.00000 -0.01750 
0.12600 0.02250 -0.09400 
-0.00450 -0.08250 -0.24600 
0.03950 0.00950 -0.11900 
0.09900 0.09550 -0.09500 
0.10650 0.10700 -0.01950 
0.05050 0.13250 -0.09600 
0.13550 0.00200 -0.26100 
-0.04050 -0.03650 -0.04750 
0.07500 -0.06450 -0.12300 
0.11500 0.03650 -0.04550 
0.08800 0.03700 -0.08250 
0.14450 0.11850 -0.05800 
0.04750 0.07650 0.03150 
0.03850 0.09200 -0.24400 
0.06550 -0.06800 -0.24100 
-0.03400 0.01650 -0.08500 
0.10100 0.08850 -0.21550 
0.03250 -0.00150 -0.07850 
0.06850 -0.00600 -0.08050 
0.04900 0.10200 -0.12950 
0.03200 0.14750 -0.10250 
0.15150 0.02450 -0.19200 
0.01150 -0.00250 -0.08400 
0.02300 0.09900 -0.18850 
-0.00900 0.05150 -0.05600 
0.11500 -0.07850 0.02550 
0.01800 -0.08350 -0.13050 
0.00250 0.03450 -0.07750 
0.06450 0.10100 -0.13000 
-0.06200 0.07150 -0.01600 
0.06900 0.04250 -0.14250 
0.04600 0.06250 -0.06500 
0.05000 0.02350 -0.07650 
-0.01350 0.04950 -0.18200 
0.03000 0.14050 -0.09300 
0.05000 0.15250 -0.16400 
0.08150 0.12550 -0.02450 
0.10200 0.01500 -0.04500 
0.02800 0.02250 -0.16050 
-0.07200 0.10450 -0.01050 
0.07450 0.00950 -0.23500 
0.12350 0.13050 -0.10850 
0.06150 0.02700 -0.21750 
0.02200 0.10850 -0.10000 
0.03950 0.03700 -0.08400 
0.03700 0.08200 0.01900 
-0.00000 0.03500 -0.04100 
-0.06450 0.06450 0.09950 
0.10600 0.10500 -0.05800 
-0.05500 0.09500 -0.01200 
0.01150 0.17050 -0.08200 
0.06800 0.03700 -0.18050 
-0.04950 -0.01150 0.08850 
0.17150 0.06100 -0.29200 
0.06150 0.02750 -0.05500 
0.14400 0.06100 -0.21600 
0.05200 -0.04350 -0.11050 
-0.01700 0.06600 -0.15250 
0.07900 0.19100 -0.12200 
0.05950 0.00450 0.03200 
0.10700 0.14350 -0.08750 
-0.06000 0.00250 0.02300 
0.05950 -0.01050 -0.28400 
0.03700 0.16350 -0.03200 
-0.02500 -0.01200 -0.11700 
0.00800 -0.01000 -0.02200 
0.15050 0.07950 -0.01050 
0.07500 0.09250 -0.06750 
0.04050 0.10150 -0.02900 
0.10100 0.07700 -0.17800 
0.01350 0.02000 -0.11700 
0.00050 -0.04050 -0.07300 
0.02300 -0.05000 -0.10950 
0.00050 0.03500 0.06000 
-0.12700 0.03400 -0.19850 
-0.01250 0.09050 -0.00250 
0.22300 0.03450 0.03250 
0.02650 -0.06050 -0.29100 
0.09600 0.04200 -0.24950 
0.06450 0.20300 -0.10900 
0.08250 -0.01200 0.02800 
0.00100 0.09200 -0.16300 
-0.01700 -0.04450 -0.12300 
0.15700 -0.00000 -0.14100 
0.10700 0.03750 -0.02200 
0.01100 0.07250 -0.09550 
0.07750 0.07700 -0.10700 
0.01150 0.02050 -0.09350 
0.11650 0.05150 0.02100 
-0.00050 0.08550 -0.13400 
0.05150 0.09600 -0.19600 
0.05950 -0.04000 -0.04950 
0.02050 0.04350 0.06550 
0.09450 0.09450 -0.07150 
0.10200 0.05550 -0.00250 
0.07850 0.12600 -0.12250 
0.10350 -0.02650 0.02950 
-0.01450 0.04550 -0.11400 
0.06800 0.13800 -0.04350 
-0.08350 0.05450 -0.07500 
-0.01250 0.03100 0.10000 
0.06800 0.04800 -0.13700 
0.03900 0.14750 -0.01550 
0.08150 0.01700 -0.02400 
0.02850 -0.00250 -0.12250 
0.04950 0.13450 -0.20550 
0.12150 0.07450 -0.01300 
0.08250 0.00700 -0.14750 
0.10400 0.09500 -0.13550 
0.06400 0.04500 -0.06500 
0.06350 -0.02350 -0.11500 
0.11450 0.14050 0.21900 
0.10850 0.06450 0.16450 
-0.03850 -0.03450 -0.03900 
0.01700 0.12200 -0.01950 
0.00250 0.11050 -0.10100 
0.16650 0.12800 -0.10450 
-0.07350 0.03400 0.00150 
0.06500 0.13450 0.00300 
-0.02950 0.02450 0.00650 
0.00400 -0.02200 0.07250 
-0.04550 0.04350 0.07200 
0.10800 0.05150 -0.09550 
0.04900 -0.00700 0.00350 
0.04100 0.00100 -0.02850 
0.03950 0.02100 -0.10050 
0.01300 0.04950 -0.10300 
0.06150 0.02400 -0.08250 
0.04100 0.06600 -0.20450 
0.02900 0.00450 -0.04400 
0.09350 0.08000 -0.18950 
0.08400 0.16500 -0.15050 
0.06900 0.05350 -0.10500 
0.09100 -0.01100 -0.06500 
-0.03150 0.11550 -0.03000 
0.08400 0.15450 -0.29150 
0.05900 0.11800 0.02300 
0.19750 -0.03750 0.04600 