# vtk DataFile Version 2.0 
Xm, Ym, Zm, Uvecs, timestep 10032 
ASCII 
 
DATASET POLYDATA POINTS 479 float 
 -1.999  -7.188 -73.513 
  7.671   8.026 -71.687 
  4.137   7.582 -73.380 
  3.545   5.627 -69.506 
 -2.373  -3.242 -73.947 
 -1.078  10.644 -69.322 
  9.682   3.029 -71.569 
  9.936   7.807 -70.147 
 -7.704  -2.091 -72.763 
  1.649   2.503 -69.511 
  7.767   8.976 -69.736 
  2.528   4.190 -69.807 
  1.273   1.619 -66.349 
  3.990   1.478 -67.529 
  4.786  -6.629 -71.540 
 -1.036   9.442 -71.928 
 -3.724  -4.620 -77.285 
  1.487 -11.037 -70.225 
 -4.560   7.197 -72.060 
 -3.100   2.896 -68.413 
-10.157   3.066 -70.087 
-10.867   2.187 -71.688 
  3.982  -0.712 -71.257 
 -6.761  -5.396 -66.896 
 -1.983   7.115 -71.269 
 -6.606   5.542 -68.537 
  5.258   1.750 -67.869 
  2.546   9.354 -67.995 
  3.897   4.329 -72.601 
  3.498   8.156 -73.873 
 14.529   8.550 -68.334 
 -4.462  11.188 -72.336 
  1.652   1.453 -74.227 
 -9.120  -3.915 -69.101 
  0.679  -9.580 -72.849 
  4.545   2.691 -66.595 
 -2.064  11.437 -67.176 
  0.426   1.117 -67.026 
 12.105  10.810 -68.953 
 11.327  -7.013 -68.275 
  0.373  -6.722 -70.785 
  3.800   8.009 -67.332 
 -7.809  -8.463 -70.632 
 -5.444   0.804 -72.276 
 13.686   8.745 -71.848 
-10.160  -1.361 -67.794 
  5.402  11.527 -69.741 
  7.873   6.411 -75.957 
  2.562  -7.834 -72.273 
 12.917  -1.854 -69.830 
 -5.461  -4.833 -70.038 
  3.510  -9.885 -63.610 
  0.140  10.905 -64.523 
  9.341   9.526 -66.601 
  6.868  -4.453 -73.672 
-11.974   7.111 -71.005 
 -4.886   8.085 -65.326 
  0.578   3.179 -69.233 
 -1.486  13.058 -67.261 
 -5.427   3.567 -66.449 
-13.513   1.785 -70.030 
 11.828  -1.692 -68.180 
 -8.994   4.076 -67.228 
 -2.551  -8.284 -68.933 
-10.181   5.021 -71.828 
  8.272   1.860 -68.110 
  6.041  -3.461 -68.470 
 -0.274  -9.517 -63.490 
 -4.657  -2.394 -74.180 
 -6.096   0.869 -69.544 
 -0.632   5.868 -70.107 
 13.776   4.873 -72.944 
-12.396   4.553 -70.848 
  9.711   6.015 -68.035 
 -6.935  -2.039 -65.774 
 -1.680 -11.247 -65.716 
 -3.910   7.284 -68.355 
 -6.501  -8.015 -67.227 
 -6.673  -4.155 -67.207 
  5.429  -8.979 -75.346 
  1.284 -11.745 -73.122 
 12.203  -4.998 -69.869 
 -7.593   0.368 -64.685 
 -4.588  -6.054 -70.507 
 17.102   2.711 -71.663 
 -6.023   4.793 -63.901 
 14.198  -5.039 -71.810 
  9.027   5.455 -68.696 
 -8.643  -6.219 -66.139 
 -3.357  -1.704 -70.308 
  2.158   3.728 -61.658 
 16.598   1.069 -68.756 
 -3.125  11.043 -70.671 
-11.125 -11.051 -69.967 
 -8.881  -7.857 -68.667 
-11.403   9.032 -71.512 
  3.543  -8.090 -69.429 
  1.481   4.251 -68.372 
 -8.849   4.316 -63.968 
  7.329   0.901 -67.504 
  9.888   9.945 -68.052 
-14.291 -10.940 -69.720 
 -0.684  -6.047 -71.167 
-10.972   7.505 -62.876 
  5.578  -5.266 -63.385 
-12.582  -6.626 -70.216 
  2.673  -2.090 -72.141 
 12.838  -1.745 -64.880 
 13.653   1.023 -70.273 
 -4.361   5.171 -60.163 
  4.299   8.753 -60.071 
-14.836 -12.004 -72.615 
 -0.950   6.539 -63.076 
  3.664   6.324 -66.909 
-12.742  10.090 -65.608 
  3.438  -4.386 -68.622 
  9.479  -3.197 -67.420 
 12.444   8.610 -67.566 
  6.185   8.529 -68.118 
 -6.307   7.821 -66.055 
 -9.575   1.357 -68.500 
  0.197  -7.988 -71.810 
  7.476  -5.438 -68.535 
 -6.730  -0.130 -63.819 
  8.332  10.541 -69.129 
 11.732   7.104 -67.245 
 -7.739  11.928 -69.083 
  9.384   2.298 -65.767 
 -9.621 -11.326 -67.916 
 -6.514  -5.727 -69.610 
 -6.665 -10.562 -69.707 
 -1.245  -5.097 -62.948 
 -8.439  10.407 -73.153 
-13.654  12.159 -73.053 
 -2.108  10.544 -70.373 
-11.807  -4.337 -75.200 
 -6.521   5.886 -65.196 
  4.302   1.666 -72.656 
-11.683   9.471 -75.869 
 -2.074   2.670 -59.251 
 -6.094   7.029 -73.304 
 11.579  -4.805 -69.579 
  9.140   2.502 -62.771 
-13.152  -1.693 -72.909 
 -9.116  -7.220 -69.373 
 -0.112   0.131 -61.306 
 -8.643   9.637 -63.468 
  0.722   5.942 -73.111 
 -7.148   3.075 -67.893 
-11.872   4.031 -68.429 
 -5.414  -4.162 -66.849 
-10.990  -9.680 -66.148 
 -6.941  10.621 -70.783 
  8.459  -1.173 -69.928 
  4.083 -10.942 -68.335 
 12.322   7.479 -70.343 
  6.820 -12.050 -66.927 
  5.650   3.869 -66.117 
 -4.848   2.755 -60.134 
-12.125  -5.344 -69.455 
 -0.889   0.133 -70.330 
 10.073   5.181 -70.797 
 14.916   2.351 -70.610 
 -5.037   3.652 -72.500 
 15.645  -4.755 -66.652 
  4.864  -4.652 -68.887 
  3.572  -1.867 -64.852 
  2.009   8.219 -66.148 
 14.852  -8.346 -70.495 
 -5.446   5.549 -62.661 
-12.365   1.058 -76.069 
  9.521   5.490 -62.843 
  4.602 -10.967 -73.458 
  6.642  11.085 -72.070 
  6.572  12.872 -66.912 
 10.442   2.088 -64.054 
-13.660   5.720 -68.418 
  3.933   7.189 -63.462 
  5.667 -11.990 -68.993 
 -2.192  -1.699 -74.512 
 11.148  -3.521 -68.348 
 -9.909  -2.418 -75.392 
-10.890  -4.268 -69.299 
  5.803  -1.744 -63.255 
  1.421   7.029 -75.965 
 12.026   5.114 -62.508 
 -4.083   8.711 -60.004 
 -6.697   2.386 -75.725 
 11.776  -6.087 -69.357 
 -2.955   9.075 -72.188 
-11.797  -7.841 -69.144 
-11.361   4.934 -63.379 
-14.626   8.080 -69.954 
-11.560  -4.547 -69.475 
  7.412  12.557 -68.685 
  5.373  -1.906 -68.014 
-13.002  -6.492 -66.096 
 -3.716  13.132 -63.973 
 11.282  -5.726 -68.835 
 -6.232  -8.416 -73.184 
 -3.302  -3.403 -70.939 
-13.358   8.198 -69.667 
-10.762   1.966 -69.089 
  4.086 -12.540 -67.046 
  7.747   3.766 -75.797 
 14.119   4.200 -70.679 
 -5.697   2.487 -64.168 
  7.515  -7.277 -69.366 
  8.244  -0.246 -63.165 
-13.472   8.498 -71.041 
 -9.481  -9.299 -65.759 
-11.634   2.090 -67.031 
  0.410   7.148 -72.576 
 -9.276  -1.955 -69.953 
 -6.536  -6.217 -73.327 
-10.613  -8.460 -64.175 
  5.553   7.904 -59.461 
  0.021   4.457 -61.002 
-13.839  11.305 -67.516 
-13.648  -2.090 -70.761 
 -9.417   6.583 -68.644 
 -2.003   6.282 -58.942 
  9.085   8.488 -64.733 
  9.303   4.652 -65.764 
  6.508   9.890 -70.785 
 -7.783   7.350 -65.833 
 -0.433   6.199 -60.022 
  9.783 -11.892 -71.031 
  9.968   0.852 -70.113 
 10.317  -0.862 -62.136 
  2.789  12.572 -65.623 
 -7.557  -4.332 -71.031 
-11.317  -1.476 -71.904 
-11.043  -6.344 -66.579 
 -7.971 -12.602 -66.508 
 -6.690   5.034 -73.006 
-14.503  -1.963 -69.622 
-13.480   7.904 -64.832 
 13.131  -0.564 -67.294 
 13.797   2.517 -73.856 
  8.938  -5.435 -72.138 
 15.325   7.066 -67.613 
 11.490   8.096 -67.968 
  9.724  -8.441 -69.903 
  1.498  -8.367 -73.131 
-11.008   5.774 -67.841 
-10.961   8.819 -61.544 
 14.054  10.820 -68.136 
  9.377  -8.698 -70.267 
-14.873   3.125 -76.227 
 -2.300  -5.765 -76.548 
 10.765  12.672 -66.880 
 -9.028   8.774 -73.286 
 13.945   2.899 -58.851 
 12.360   6.438 -67.063 
 13.386  -7.770 -68.397 
  7.723  -5.312 -70.033 
 -5.648  -0.674 -72.301 
  3.848  11.613 -75.132 
  7.605  -2.007 -69.960 
 -3.454   9.948 -73.356 
-13.887   4.728 -68.445 
 16.405  -3.016 -73.346 
  3.108  -2.276 -65.059 
-11.674   5.586 -64.392 
-12.635  -5.567 -69.501 
 10.352  11.137 -66.361 
 12.297  11.817 -66.784 
 15.454   8.047 -72.956 
 11.607   2.633 -63.912 
 -8.620   0.067 -64.557 
 -7.692  11.838 -74.300 
-10.833   9.918 -69.019 
  7.145  -5.125 -69.709 
-14.717   4.374 -69.427 
 17.536   3.857 -68.013 
 -1.915  -1.269 -66.537 
  0.048  -1.789 -59.447 
  5.367   8.826 -75.867 
 -3.857  -5.883 -72.965 
  9.255  -3.662 -64.644 
 16.952   4.080 -72.839 
-12.899  -8.313 -73.358 
 12.558   1.703 -62.993 
 -4.854   3.413 -61.624 
 -0.653   9.107 -62.177 
  7.576  -3.583 -67.517 
 12.844   4.339 -64.035 
 -8.352  -0.745 -64.953 
  2.813  -8.143 -66.412 
 12.997  -6.505 -67.714 
 -9.643 -11.189 -69.790 
 15.448   8.660 -67.232 
 15.938 -11.676 -70.445 
  9.723 -10.968 -70.500 
-14.349  12.272 -67.541 
 14.767   1.982 -72.630 
 -6.602   8.196 -66.781 
-15.547   3.146 -73.535 
  4.998  -5.263 -71.860 
 13.656  -8.102 -73.007 
  5.662  -2.538 -73.270 
-15.041  -8.550 -70.240 
-10.085   3.090 -74.430 
  7.382  10.792 -67.657 
  9.665  -9.891 -66.790 
  1.368   5.682 -68.107 
 -1.544   9.771 -74.900 
 -3.630  -7.239 -64.766 
 10.626   2.819 -65.526 
  7.303  -5.826 -64.085 
 -4.262  -7.003 -72.510 
 -1.091   2.966 -70.822 
 -5.034   5.875 -71.358 
 -5.077   5.445 -72.736 
 -3.019 -12.093 -72.892 
  3.628  10.143 -73.213 
 -4.722  -2.317 -71.619 
 -7.839 -10.799 -69.816 
 -4.944  -1.466 -72.605 
 -0.309 -12.137 -69.070 
 -1.707  -0.008 -67.678 
  1.554   6.946 -68.290 
 -2.175  -2.649 -66.078 
-10.259   6.750 -74.638 
 -1.037   4.949 -69.045 
 -6.205  -6.422 -68.158 
 -7.345  -0.988 -74.637 
  3.514   8.898 -70.886 
-13.832  10.264 -73.404 
 11.980   0.164 -74.040 
 -5.609  -8.245 -69.620 
-10.049   4.202 -62.510 
 10.721  -7.571 -66.560 
 -1.982  -7.197 -69.203 
  4.343   9.861 -67.399 
 -8.615  -5.801 -61.821 
 -6.810 -10.189 -66.542 
 -7.305   6.399 -64.330 
 -1.067   7.936 -61.858 
  4.382  -0.714 -62.950 
 -6.319  10.823 -65.777 
  2.022  -6.353 -70.998 
  8.480  10.303 -62.047 
 -9.709  -7.832 -66.183 
  2.052 -10.458 -69.745 
-10.367   0.433 -67.637 
 -4.736  -9.152 -66.121 
 -2.383   2.994 -68.609 
 -4.446  -1.494 -69.286 
 -2.210  -3.886 -64.144 
 -6.867   7.408 -61.814 
  5.051  11.323 -62.862 
-11.229 -10.094 -68.308 
 -3.391  -0.736 -65.434 
 -2.179  13.018 -62.620 
  5.639  -2.221 -76.741 
-12.066  10.762 -64.418 
 -5.890   7.345 -64.608 
 -9.765   0.492 -64.066 
  8.633  11.777 -67.881 
  8.805  10.079 -65.371 
 16.718  -8.392 -72.120 
-10.741  -2.286 -67.539 
 -8.537   1.382 -60.267 
 -7.096 -12.762 -66.020 
 10.646  11.822 -69.047 
  8.575  11.663 -69.871 
 17.619  -0.820 -66.422 
  6.481  -8.837 -61.362 
  8.244  -6.850 -72.541 
 -7.942  -8.747 -76.788 
  7.804   1.974 -66.948 
 11.525  -1.978 -69.162 
 -8.908  -8.189 -65.545 
 16.447  -9.538 -65.584 
 10.497   1.942 -62.518 
  6.805   8.274 -68.394 
 -4.170  -9.669 -69.124 
-11.102  -7.898 -69.440 
 11.131   2.325 -76.023 
  8.032 -12.148 -67.404 
 -5.855   3.955 -74.279 
 -6.463  -7.503 -63.770 
 15.576   0.035 -72.080 
 -5.374  -1.619 -64.791 
 -3.378 -10.680 -60.430 
 11.609 -10.637 -65.554 
 15.676   0.121 -64.304 
 -3.257  10.219 -71.131 
 10.018  -7.002 -62.449 
 18.163  -7.760 -68.937 
-15.892   6.591 -75.401 
  7.402 -10.913 -69.495 
  4.275   3.690 -76.874 
  0.913   4.053 -60.225 
 -1.231 -11.982 -73.946 
 -7.951 -11.927 -63.250 
 -7.681   5.603 -67.655 
-13.282 -10.412 -68.817 
  4.364 -12.063 -72.225 
-12.178  -0.149 -68.912 
 -0.662   1.535 -74.562 
  5.144   6.077 -61.105 
  8.587   8.216 -72.361 
  2.972   4.155 -71.145 
 16.461  11.773 -66.029 
 -8.569 -11.860 -71.371 
  2.082  10.698 -62.674 
 15.093 -12.498 -71.366 
 14.512  -8.075 -63.925 
 12.306  -0.493 -73.232 
  1.153  12.208 -73.379 
  5.071  10.183 -71.858 
 -2.058  -8.566 -71.618 
 15.261   1.829 -63.883 
  8.724   0.026 -74.322 
 -0.239   3.910 -59.889 
  8.768   9.485 -73.725 
  6.664   9.031 -57.775 
-10.994 -12.659 -65.906 
  8.653   6.675 -66.794 
-13.790   6.428 -71.598 
 -5.976  -9.389 -68.005 
 11.882  -0.347 -59.687 
  2.156 -10.976 -76.008 
 10.407 -13.259 -65.322 
 -3.093 -12.416 -67.374 
-14.067  -5.725 -67.284 
 11.052 -10.823 -72.009 
 14.932  -3.601 -74.430 
-12.342 -12.368 -64.239 
  5.033  -8.413 -62.534 
  0.461  -3.637 -59.937 
-13.973   9.152 -78.018 
 12.953  -8.785 -65.142 
  9.037   2.489 -69.965 
  2.540  -2.026 -68.964 
 15.878  -2.615 -66.879 
 -4.777 -12.762 -68.233 
  4.045  -2.272 -75.828 
 -5.634  -4.293 -73.460 
  4.723   1.668 -77.931 
 10.380  11.687 -68.859 
 16.276  -7.748 -72.302 
-10.146  -0.363 -61.927 
  3.146  -4.707 -71.715 
 16.058   2.493 -69.594 
-12.398 -10.715 -71.006 
-14.412  -5.342 -69.336 
 13.455   5.088 -69.068 
 -3.784   7.906 -61.135 
 13.107  -0.924 -58.426 
 12.744  12.475 -63.329 
-11.455   7.628 -75.529 
-11.165   0.353 -62.216 
-10.366  10.266 -61.808 
  2.588 -12.587 -71.669 
  7.427 -12.701 -69.360 
-13.992   4.267 -65.239 
 12.890   3.583 -73.221 
-14.201  -1.304 -69.508 
-12.448  -1.429 -67.635 
 -3.072   8.082 -72.197 
 -4.875   6.617 -71.647 
 -0.550   5.965 -71.894 
 14.825  -6.061 -73.509 
  1.877   1.894 -68.177 
-11.964  -9.473 -69.174 
 -4.297 -10.194 -71.791 
  3.965   5.543 -73.986 
 -7.997   2.422 -66.430 
 -2.195  -5.691 -62.448 
  4.137 -10.933 -63.791 
  3.753   6.572 -65.984 
 10.005 -10.002 -65.502 
 -1.920   5.305 -65.781 
 12.510  -5.601 -67.060 
 -9.924  -3.954 -63.953 

 VERTICES 479 958 
1 0 
1 1 
1 2 
1 3 
1 4 
1 5 
1 6 
1 7 
1 8 
1 9 
1 10 
1 11 
1 12 
1 13 
1 14 
1 15 
1 16 
1 17 
1 18 
1 19 
1 20 
1 21 
1 22 
1 23 
1 24 
1 25 
1 26 
1 27 
1 28 
1 29 
1 30 
1 31 
1 32 
1 33 
1 34 
1 35 
1 36 
1 37 
1 38 
1 39 
1 40 
1 41 
1 42 
1 43 
1 44 
1 45 
1 46 
1 47 
1 48 
1 49 
1 50 
1 51 
1 52 
1 53 
1 54 
1 55 
1 56 
1 57 
1 58 
1 59 
1 60 
1 61 
1 62 
1 63 
1 64 
1 65 
1 66 
1 67 
1 68 
1 69 
1 70 
1 71 
1 72 
1 73 
1 74 
1 75 
1 76 
1 77 
1 78 
1 79 
1 80 
1 81 
1 82 
1 83 
1 84 
1 85 
1 86 
1 87 
1 88 
1 89 
1 90 
1 91 
1 92 
1 93 
1 94 
1 95 
1 96 
1 97 
1 98 
1 99 
1 100 
1 101 
1 102 
1 103 
1 104 
1 105 
1 106 
1 107 
1 108 
1 109 
1 110 
1 111 
1 112 
1 113 
1 114 
1 115 
1 116 
1 117 
1 118 
1 119 
1 120 
1 121 
1 122 
1 123 
1 124 
1 125 
1 126 
1 127 
1 128 
1 129 
1 130 
1 131 
1 132 
1 133 
1 134 
1 135 
1 136 
1 137 
1 138 
1 139 
1 140 
1 141 
1 142 
1 143 
1 144 
1 145 
1 146 
1 147 
1 148 
1 149 
1 150 
1 151 
1 152 
1 153 
1 154 
1 155 
1 156 
1 157 
1 158 
1 159 
1 160 
1 161 
1 162 
1 163 
1 164 
1 165 
1 166 
1 167 
1 168 
1 169 
1 170 
1 171 
1 172 
1 173 
1 174 
1 175 
1 176 
1 177 
1 178 
1 179 
1 180 
1 181 
1 182 
1 183 
1 184 
1 185 
1 186 
1 187 
1 188 
1 189 
1 190 
1 191 
1 192 
1 193 
1 194 
1 195 
1 196 
1 197 
1 198 
1 199 
1 200 
1 201 
1 202 
1 203 
1 204 
1 205 
1 206 
1 207 
1 208 
1 209 
1 210 
1 211 
1 212 
1 213 
1 214 
1 215 
1 216 
1 217 
1 218 
1 219 
1 220 
1 221 
1 222 
1 223 
1 224 
1 225 
1 226 
1 227 
1 228 
1 229 
1 230 
1 231 
1 232 
1 233 
1 234 
1 235 
1 236 
1 237 
1 238 
1 239 
1 240 
1 241 
1 242 
1 243 
1 244 
1 245 
1 246 
1 247 
1 248 
1 249 
1 250 
1 251 
1 252 
1 253 
1 254 
1 255 
1 256 
1 257 
1 258 
1 259 
1 260 
1 261 
1 262 
1 263 
1 264 
1 265 
1 266 
1 267 
1 268 
1 269 
1 270 
1 271 
1 272 
1 273 
1 274 
1 275 
1 276 
1 277 
1 278 
1 279 
1 280 
1 281 
1 282 
1 283 
1 284 
1 285 
1 286 
1 287 
1 288 
1 289 
1 290 
1 291 
1 292 
1 293 
1 294 
1 295 
1 296 
1 297 
1 298 
1 299 
1 300 
1 301 
1 302 
1 303 
1 304 
1 305 
1 306 
1 307 
1 308 
1 309 
1 310 
1 311 
1 312 
1 313 
1 314 
1 315 
1 316 
1 317 
1 318 
1 319 
1 320 
1 321 
1 322 
1 323 
1 324 
1 325 
1 326 
1 327 
1 328 
1 329 
1 330 
1 331 
1 332 
1 333 
1 334 
1 335 
1 336 
1 337 
1 338 
1 339 
1 340 
1 341 
1 342 
1 343 
1 344 
1 345 
1 346 
1 347 
1 348 
1 349 
1 350 
1 351 
1 352 
1 353 
1 354 
1 355 
1 356 
1 357 
1 358 
1 359 
1 360 
1 361 
1 362 
1 363 
1 364 
1 365 
1 366 
1 367 
1 368 
1 369 
1 370 
1 371 
1 372 
1 373 
1 374 
1 375 
1 376 
1 377 
1 378 
1 379 
1 380 
1 381 
1 382 
1 383 
1 384 
1 385 
1 386 
1 387 
1 388 
1 389 
1 390 
1 391 
1 392 
1 393 
1 394 
1 395 
1 396 
1 397 
1 398 
1 399 
1 400 
1 401 
1 402 
1 403 
1 404 
1 405 
1 406 
1 407 
1 408 
1 409 
1 410 
1 411 
1 412 
1 413 
1 414 
1 415 
1 416 
1 417 
1 418 
1 419 
1 420 
1 421 
1 422 
1 423 
1 424 
1 425 
1 426 
1 427 
1 428 
1 429 
1 430 
1 431 
1 432 
1 433 
1 434 
1 435 
1 436 
1 437 
1 438 
1 439 
1 440 
1 441 
1 442 
1 443 
1 444 
1 445 
1 446 
1 447 
1 448 
1 449 
1 450 
1 451 
1 452 
1 453 
1 454 
1 455 
1 456 
1 457 
1 458 
1 459 
1 460 
1 461 
1 462 
1 463 
1 464 
1 465 
1 466 
1 467 
1 468 
1 469 
1 470 
1 471 
1 472 
1 473 
1 474 
1 475 
1 476 
1 477 
1 478 
POINT_DATA 479 
SCALARS MeanU double 1 
LOOKUP_TABLE default
0.04283 
0.13131 
0.05972 
0.07583 
0.04557 
0.04876 
0.09532 
0.11620 
0.05494 
0.10056 
0.11203 
0.07738 
0.15876 
0.08180 
0.06779 
0.08680 
0.03615 
0.10094 
0.09584 
0.14563 
0.08568 
0.08567 
0.12479 
0.20429 
0.12099 
0.12232 
0.03087 
0.06547 
0.07053 
0.06435 
0.16847 
0.08683 
0.13398 
0.10106 
0.09244 
0.09423 
0.13872 
0.13880 
0.05454 
0.09458 
0.08510 
0.12150 
0.14617 
0.06999 
0.09203 
0.14095 
0.05902 
0.09507 
0.05699 
0.06587 
0.08930 
0.13727 
0.10791 
0.11770 
0.08222 
0.06143 
0.17651 
0.09538 
0.08822 
0.13754 
0.04758 
0.10033 
0.19830 
0.16048 
0.04230 
0.07799 
0.08821 
0.15387 
0.02940 
0.04871 
0.09253 
0.08659 
0.04349 
0.12676 
0.17778 
0.17565 
0.12063 
0.11196 
0.16086 
0.03992 
0.09607 
0.05838 
0.06089 
0.08636 
0.10371 
0.16181 
0.08840 
0.11442 
0.19995 
0.13450 
0.14714 
0.10378 
0.04539 
0.15132 
0.15340 
0.04460 
0.06609 
0.07637 
0.12833 
0.08140 
0.05191 
0.14224 
0.09211 
0.08865 
0.08091 
0.08219 
0.14040 
0.13322 
0.10519 
0.14398 
0.09607 
0.07234 
0.08827 
0.12489 
0.01899 
0.12257 
0.10247 
0.12379 
0.11533 
0.18276 
0.07640 
0.05700 
0.06154 
0.10538 
0.09591 
0.05986 
0.05421 
0.08365 
0.09272 
0.08281 
0.09549 
0.16673 
0.04135 
0.04711 
0.05909 
0.04136 
0.15882 
0.09343 
0.09426 
0.10146 
0.09986 
0.05089 
0.14766 
0.04077 
0.10945 
0.17288 
0.14807 
0.09427 
0.10309 
0.03743 
0.13690 
0.07411 
0.08692 
0.09584 
0.10418 
0.10280 
0.06071 
0.06068 
0.10911 
0.08674 
0.13526 
0.10215 
0.11369 
0.13175 
0.13392 
0.13403 
0.17563 
0.09840 
0.07125 
0.16063 
0.04100 
0.12985 
0.06275 
0.11737 
0.09631 
0.08144 
0.04473 
0.10440 
0.04683 
0.05886 
0.12192 
0.07215 
0.05009 
0.10982 
0.02839 
0.17248 
0.17090 
0.06783 
0.07151 
0.13082 
0.08056 
0.11524 
0.10719 
0.05622 
0.02961 
0.14298 
0.18334 
0.08144 
0.06865 
0.03367 
0.07865 
0.04274 
0.06999 
0.16769 
0.06288 
0.09642 
0.16660 
0.03147 
0.14279 
0.01785 
0.13903 
0.02390 
0.08017 
0.06213 
0.10080 
0.24022 
0.23352 
0.10020 
0.05130 
0.05661 
0.06864 
0.12105 
0.05616 
0.11114 
0.10630 
0.11226 
0.12821 
0.06680 
0.07882 
0.12308 
0.04522 
0.08385 
0.06996 
0.12671 
0.12341 
0.05044 
0.04145 
0.05115 
0.11123 
0.11506 
0.03242 
0.15200 
0.09136 
0.06117 
0.06174 
0.07731 
0.16474 
0.10169 
0.05792 
0.08016 
0.06260 
0.04279 
0.05252 
0.09031 
0.11704 
0.10595 
0.01990 
0.05249 
0.07414 
0.11304 
0.13420 
0.06527 
0.04210 
0.15298 
0.02704 
0.17216 
0.01717 
0.03569 
0.10669 
0.09022 
0.07537 
0.13983 
0.03908 
0.06229 
0.07423 
0.10801 
0.17895 
0.10450 
0.05656 
0.04642 
0.19048 
0.11109 
0.12499 
0.12479 
0.10712 
0.11848 
0.10965 
0.05377 
0.07915 
0.23005 
0.11106 
0.17119 
0.15004 
0.12558 
0.07775 
0.08776 
0.10603 
0.16820 
0.06738 
0.05603 
0.05350 
0.08222 
0.04332 
0.03931 
0.05994 
0.06853 
0.08759 
0.13044 
0.18548 
0.10712 
0.13893 
0.05340 
0.11827 
0.06704 
0.03679 
0.14904 
0.14222 
0.09788 
0.13481 
0.07525 
0.10745 
0.15333 
0.09547 
0.20477 
0.04804 
0.09827 
0.10592 
0.05552 
0.13237 
0.06547 
0.09291 
0.20505 
0.14426 
0.09278 
0.14740 
0.08018 
0.10413 
0.18074 
0.14175 
0.09618 
0.18241 
0.12037 
0.05722 
0.13900 
0.05964 
0.10485 
0.13239 
0.17421 
0.12645 
0.10709 
0.17746 
0.16083 
0.13695 
0.16301 
0.19210 
0.11777 
0.09579 
0.03282 
0.23090 
0.08774 
0.12006 
0.09121 
0.11087 
0.16760 
0.26313 
0.13184 
0.09469 
0.10499 
0.08768 
0.11912 
0.04816 
0.12014 
0.06881 
0.04703 
0.13282 
0.11115 
0.14835 
0.09913 
0.19167 
0.11306 
0.12196 
0.05614 
0.09244 
0.14476 
0.09513 
0.17399 
0.14394 
0.13244 
0.10066 
0.15715 
0.15906 
0.14387 
0.06607 
0.03609 
0.10936 
0.21109 
0.06053 
0.09331 
0.11230 
0.11354 
0.04740 
0.02805 
0.11367 
0.10731 
0.11352 
0.09419 
0.05955 
0.16815 
0.14005 
0.10534 
0.15753 
0.08471 
0.07806 
0.13472 
0.08280 
0.07476 
0.03651 
0.17926 
0.08455 
0.15571 
0.06800 
0.14364 
0.10168 
0.13168 
0.08976 
0.09546 
0.10045 
0.18048 
0.17841 
0.06365 
0.06851 
0.14198 
0.14730 
0.21854 
0.07897 
0.18118 
0.07556 
0.14724 
0.13588 
0.09450 
0.07556 
0.09384 
0.05033 
0.12242 
0.11342 
0.07284 
0.07312 
0.09327 
0.13621 
0.14642 
0.15028 
0.17537 
0.09776 
0.05117 
0.05420 
0.23005 
0.10869 
0.08351 
0.07984 
0.08154 
0.06566 
0.02458 
0.04686 
0.17246 
0.09585 
0.11406 
0.09764 
0.07812 
0.18700 
0.12341 
0.05501 
0.10593 
0.14235 
0.08880 
0.14264 
0.11962 
0.10827 
0.11250 
0.18134 

 VECTORS Umean float 
-0.03050 0.03000 0.00200 
-0.10350 0.04800 -0.06500 
0.03200 -0.02550 -0.04350 
-0.06200 0.03350 -0.02800 
-0.04350 0.01350 -0.00150 
-0.00850 0.00700 -0.04750 
-0.04900 0.02750 -0.07700 
-0.09050 0.01850 -0.07050 
0.01250 0.04250 -0.03250 
-0.00000 0.05750 -0.08250 
-0.05700 -0.01350 -0.09550 
-0.02800 0.05000 -0.05200 
0.01450 0.14100 -0.07150 
-0.01300 0.05350 -0.06050 
0.00250 0.03500 -0.05800 
-0.02500 -0.00450 -0.08300 
-0.02000 -0.01750 -0.02450 
0.03100 0.04750 -0.08350 
-0.05100 0.06650 -0.04650 
0.01000 0.14050 -0.03700 
-0.01650 -0.03800 -0.07500 
-0.02350 -0.01750 -0.08050 
0.05800 0.07350 -0.08250 
0.04950 0.19800 -0.00900 
-0.06150 0.05500 -0.08850 
-0.01100 0.09100 -0.08100 
-0.00700 0.02050 -0.02200 
-0.05100 0.03400 -0.02300 
-0.03850 0.02400 -0.05400 
0.02750 -0.02800 -0.05100 
-0.06000 0.02450 -0.15550 
-0.02050 0.07200 -0.04400 
-0.07250 -0.02850 -0.10900 
-0.02850 0.05550 0.07950 
0.04100 0.07200 -0.04100 
0.01150 0.07600 -0.05450 
-0.06350 0.11700 0.03900 
-0.00000 0.12100 -0.06800 
-0.02750 -0.00300 -0.04700 
0.03200 0.08900 0.00050 
-0.01250 0.07700 0.03400 
-0.01650 0.11950 -0.01450 
0.04850 0.09750 0.09750 
0.02250 0.06600 0.00600 
-0.05200 0.01700 -0.07400 
0.03300 0.13500 0.02350 
-0.04150 -0.04050 -0.01100 
0.02750 -0.01900 -0.08900 
-0.04250 0.02900 0.02450 
0.00100 0.03300 -0.05700 
-0.00500 0.08200 0.03500 
0.07900 0.04900 -0.10100 
0.00800 0.10700 -0.01150 
-0.03150 0.10850 -0.03300 
0.04300 -0.00900 -0.06950 
-0.05800 -0.01300 -0.01550 
0.03250 0.16950 -0.03700 
0.00900 0.07400 -0.05950 
0.06750 0.04550 -0.03400 
-0.00800 0.13250 -0.03600 
-0.01400 0.01150 -0.04400 
0.03250 0.07700 -0.05550 
0.04900 0.06450 -0.18100 
0.07800 0.11450 0.08100 
-0.02500 0.03350 0.00650 
0.01500 0.07600 -0.00900 
0.02900 0.06700 -0.04950 
0.05750 0.12950 -0.06000 
0.00200 0.02550 -0.01450 
0.00450 0.03250 0.03600 
-0.03600 0.06200 -0.05850 
-0.02000 0.05650 -0.06250 
-0.03350 0.02450 -0.01300 
-0.06600 0.07450 -0.07850 
0.06200 0.16150 0.04100 
0.02750 0.16350 -0.05800 
-0.01600 0.11250 -0.04050 
0.06500 0.09000 0.01450 
-0.00300 0.15350 -0.04800 
0.00100 0.03850 -0.01050 
0.03550 0.08800 -0.01500 
-0.00750 0.03450 -0.04650 
0.01500 0.05900 0.00100 
-0.01400 0.07700 0.03650 
-0.02050 0.03750 -0.09450 
0.00800 0.15250 -0.05350 
0.04550 0.07350 -0.01850 
-0.07850 0.05200 -0.06500 
0.11800 0.08850 0.13500 
0.07350 0.09200 -0.06500 
0.01900 0.09700 -0.10900 
-0.02500 0.08800 -0.04900 
-0.02000 0.02000 -0.03550 
0.00700 0.13500 0.06800 
0.04250 0.05800 0.13550 
-0.02350 -0.02500 -0.02850 
-0.00350 0.05800 -0.03150 
0.01350 0.04250 -0.06200 
0.04950 0.10350 -0.05750 
0.04050 0.05400 -0.04550 
-0.02400 -0.04600 -0.00150 
0.00450 0.14200 -0.00700 
-0.01650 0.05300 0.07350 
0.01800 0.08250 -0.02700 
0.01550 0.07850 -0.01200 
0.00750 0.06150 0.05400 
0.03650 0.09100 -0.10050 
0.05600 0.11600 -0.03400 
0.00650 0.05950 -0.08650 
0.00500 0.10200 -0.10150 
-0.06100 0.07200 -0.01800 
0.03650 0.06200 -0.00750 
-0.03900 0.07900 0.00550 
-0.01150 0.11650 -0.04350 
-0.01450 0.00250 0.01200 
0.06950 0.08400 -0.05600 
0.06850 0.06150 -0.04500 
-0.05150 0.02150 -0.11050 
-0.06950 -0.00250 -0.09200 
0.02950 0.18000 -0.01150 
0.05000 0.01600 -0.05550 
-0.04850 0.02500 0.01650 
0.04250 0.04450 0.00050 
0.07200 0.07600 -0.01200 
-0.01750 -0.05150 -0.07900 
-0.03650 0.02300 -0.04150 
-0.04950 0.01750 -0.01350 
0.00850 0.07550 -0.03500 
-0.06200 0.06750 -0.01400 
0.00800 0.06700 0.04800 
0.06150 0.07300 0.00250 
0.08400 0.14400 -0.00250 
0.01050 -0.02700 -0.02950 
-0.04300 -0.00900 0.01700 
-0.00000 0.02400 -0.05400 
-0.03350 -0.02350 -0.00600 
-0.00350 0.14100 -0.07300 
-0.00400 0.02650 -0.08950 
-0.08150 0.00900 -0.04650 
-0.01100 0.08550 -0.05350 
0.03500 0.07600 -0.05450 
-0.02900 0.03700 -0.01950 
0.06900 0.12850 0.02300 
-0.01200 0.00600 -0.03850 
0.03400 0.02050 0.10200 
0.06000 0.15750 -0.03850 
0.11800 0.07950 -0.04100 
-0.04900 -0.01800 -0.07850 
0.02750 0.06950 -0.07100 
-0.02350 -0.01850 -0.02250 
0.04100 0.13050 -0.00550 
-0.03050 0.04250 0.05250 
-0.04150 0.07250 0.02400 
0.02500 0.06050 -0.07000 
0.08700 0.04500 0.03550 
-0.05400 -0.04150 -0.07700 
0.05700 -0.00400 -0.02050 
0.02600 0.03750 -0.04000 
-0.01800 0.09950 -0.04100 
0.02300 0.03700 0.07500 
0.02200 0.08950 -0.09900 
-0.06350 0.04450 -0.06650 
-0.01650 0.05150 -0.10000 
-0.06850 0.01100 -0.11200 
0.05300 0.12100 -0.02200 
0.05950 0.07600 -0.09300 
0.08250 0.14100 -0.06450 
-0.05450 0.07700 -0.02800 
-0.00800 0.05250 -0.04750 
-0.01900 0.15950 0.00100 
-0.02200 0.02750 -0.02100 
0.01650 0.12450 -0.03300 
0.04500 0.04350 -0.00450 
-0.09850 0.05200 -0.03700 
0.05500 0.07500 -0.02500 
0.01950 0.07850 0.00950 
-0.03750 -0.02150 0.01150 
-0.05400 0.08200 -0.03550 
0.03350 -0.02550 -0.02050 
-0.03650 -0.03850 -0.02550 
0.04100 0.09850 -0.05900 
-0.06400 0.01950 -0.02700 
0.01100 0.03650 0.03250 
0.08500 0.05950 0.03600 
-0.01250 0.00500 -0.02500 
-0.00250 0.16150 -0.06050 
0.00950 0.15400 0.07350 
0.05500 0.03750 -0.01300 
0.04250 0.05750 -0.00100 
-0.07750 0.05050 -0.09250 
0.02100 0.07750 0.00650 
-0.01150 0.10650 -0.04250 
-0.01100 -0.09800 0.04200 
0.03200 0.03600 0.02900 
0.01450 -0.00950 -0.02400 
0.08150 0.10700 -0.04850 
0.05350 0.14300 0.10150 
0.03100 0.07400 0.01400 
0.03550 0.05850 0.00550 
0.01150 0.01650 0.02700 
0.04700 0.06200 0.01150 
-0.01950 -0.00150 0.03800 
-0.00950 -0.03800 -0.05800 
0.14300 0.05700 0.06650 
-0.01250 0.00400 -0.06150 
-0.01900 0.01950 -0.09250 
0.01300 0.16600 -0.00550 
0.00050 -0.00950 -0.03000 
0.04550 0.12800 -0.04400 
0.00600 -0.00650 0.01550 
-0.04000 0.12300 0.05100 
0.02250 -0.00100 -0.00800 
-0.04450 0.00500 -0.06650 
0.00250 0.05350 -0.03150 
0.08300 0.05300 0.02150 
0.16250 0.02600 0.17500 
-0.01100 0.19300 -0.13100 
-0.01450 0.09050 -0.04050 
-0.04950 -0.00350 0.01300 
-0.04400 0.03550 0.00300 
-0.00700 -0.02750 -0.06250 
-0.01050 0.12000 -0.01200 
-0.02950 0.03550 -0.03200 
0.01050 0.09600 -0.05500 
-0.09250 0.00950 -0.05150 
0.03100 0.10000 -0.04050 
-0.01700 0.12600 0.01650 
-0.02100 0.05000 -0.03900 
-0.00650 0.04100 -0.06700 
0.03950 0.11600 -0.01150 
-0.01150 0.04050 -0.01650 
-0.01700 0.06900 0.04450 
-0.01600 -0.03650 -0.05750 
0.03300 0.05250 0.11050 
-0.02700 0.11800 -0.02400 
0.03750 0.03350 -0.00400 
-0.03400 -0.02100 0.01100 
-0.03250 -0.00000 -0.03950 
0.04500 0.09750 -0.02900 
-0.03050 0.05200 -0.09800 
-0.02100 0.02000 -0.01450 
-0.02350 0.06150 -0.13700 
-0.03250 -0.02200 -0.08250 
0.01400 0.03900 -0.04500 
-0.00750 0.05700 -0.02250 
-0.05500 -0.00950 -0.05350 
0.04400 0.15100 0.04900 
-0.02950 0.03450 -0.09100 
0.02050 0.02200 -0.04950 
-0.06600 -0.00000 0.04550 
0.02450 0.01350 0.05600 
0.03850 -0.01750 -0.00650 
-0.00600 0.01100 -0.05100 
0.02800 0.08150 -0.02700 
-0.00850 0.02000 -0.11500 
0.02000 0.08500 -0.06000 
0.00600 0.00600 -0.01800 
-0.01150 0.05050 -0.00850 
-0.02150 0.01850 -0.06850 
0.05050 0.04200 -0.09200 
-0.00800 0.11100 -0.07500 
-0.03650 -0.04400 -0.03150 
0.01400 0.02050 -0.03400 
0.07900 0.12150 -0.04900 
0.01750 -0.00800 -0.01900 
-0.02000 0.08300 0.14950 
-0.00350 -0.01450 -0.00850 
-0.02100 0.00450 -0.02850 
-0.04450 0.03350 0.09100 
0.01950 0.06800 -0.05600 
0.02450 0.07050 0.01050 
-0.08550 -0.01900 -0.10900 
-0.03000 -0.02250 -0.01100 
0.02000 0.03050 -0.05050 
-0.04300 -0.06050 0.00050 
-0.01300 -0.02800 -0.10350 
0.06050 0.14450 -0.08650 
0.05450 0.08700 -0.01950 
-0.00850 -0.01450 -0.05400 
-0.01600 0.04350 0.00250 
0.07500 0.15600 -0.07950 
0.00400 0.07900 -0.07800 
-0.07750 0.09600 -0.02000 
0.05300 0.10850 0.03150 
-0.02850 0.10250 -0.01250 
0.04100 0.11100 0.00600 
0.06900 0.06100 -0.05950 
-0.02500 0.04550 -0.01400 
-0.00350 0.07900 0.00350 
0.19900 0.10750 -0.04200 
0.04300 0.08150 -0.06200 
0.05550 0.16100 -0.01750 
-0.01050 0.03900 -0.14450 
0.07250 0.10200 -0.01050 
0.03300 0.06050 -0.03600 
-0.07950 0.03400 -0.01500 
-0.08700 0.05950 -0.01150 
0.02500 0.13100 -0.10250 
-0.04450 -0.04800 -0.01600 
-0.03450 0.01000 -0.04300 
0.01750 0.03550 -0.03600 
0.03250 -0.00200 -0.07550 
0.01350 0.02650 -0.03150 
0.00450 0.00200 0.03900 
-0.00050 0.02600 -0.05400 
0.00600 0.06800 0.00600 
-0.00550 0.05900 -0.06450 
0.04650 0.05350 -0.10950 
0.12300 0.13850 0.00950 
0.00850 0.08150 -0.06900 
0.05950 0.11900 0.04000 
0.01300 0.04450 0.02650 
-0.00650 0.08250 -0.08450 
-0.00650 0.05450 -0.03850 
0.01450 0.02100 -0.02650 
0.11450 0.07650 0.05700 
-0.07100 -0.04800 -0.11350 
0.03000 0.08750 0.03200 
0.01400 0.12750 -0.04150 
0.01950 0.06550 -0.03150 
0.08600 0.04750 0.04350 
0.05500 0.12900 -0.06200 
-0.06700 0.05100 0.04500 
0.11750 0.13500 -0.09950 
-0.04700 -0.00950 0.00300 
0.00250 0.06100 -0.07700 
0.03600 0.09900 0.01100 
-0.02000 0.00550 -0.05150 
-0.13000 -0.00450 -0.02450 
-0.05100 0.00200 0.04100 
-0.02750 0.06300 -0.06250 
0.09400 0.08150 0.16300 
0.03550 0.13950 -0.00950 
0.00350 0.08050 -0.04600 
-0.01450 0.13150 -0.06500 
-0.05400 0.05350 -0.02550 
0.06800 0.07850 0.00750 
0.09300 0.13150 -0.08200 
0.02150 0.13050 -0.05100 
-0.00850 0.09400 -0.01850 
0.05400 0.15400 -0.08150 
-0.01700 0.10950 -0.04700 
-0.02700 0.04900 0.01200 
-0.04700 0.11700 -0.05850 
0.01150 0.05850 0.00150 
0.05400 0.06100 -0.06600 
-0.02150 0.12300 0.04400 
0.08300 0.13700 0.06850 
-0.00550 0.10950 -0.06300 
-0.00050 0.10250 -0.03100 
0.08950 0.13900 -0.06450 
0.02450 0.14950 -0.05400 
-0.05450 0.07800 -0.09850 
0.07250 0.14600 -0.00100 
0.04350 0.18700 0.00650 
-0.01200 0.11700 0.00600 
0.04550 -0.00700 -0.08400 
0.03000 -0.01100 0.00750 
0.01450 0.22450 -0.05200 
0.04250 0.05250 0.05600 
0.05950 -0.04300 -0.09500 
-0.01050 0.08600 0.02850 
-0.03550 0.02700 -0.10150 
0.05750 0.14000 0.07200 
-0.06800 0.14100 -0.21150 
-0.00900 0.09200 -0.09400 
-0.04650 0.02200 -0.07950 
-0.08350 0.01200 -0.06250 
0.00200 0.07800 -0.04000 
0.10200 0.04800 0.03850 
-0.02700 0.03450 -0.02000 
0.00300 0.06800 0.09900 
0.03000 0.03850 -0.04850 
0.01500 0.04100 -0.01750 
0.04800 0.09700 0.07700 
0.07400 0.08250 0.00850 
0.03850 0.10450 -0.09800 
-0.04950 0.03250 -0.07950 
0.09900 0.11950 0.11250 
0.02450 0.10750 0.02500 
-0.00750 0.04400 -0.11350 
0.05600 0.00350 0.00200 
0.01100 0.01800 -0.09000 
0.11950 0.08050 -0.01400 
-0.02500 0.08400 -0.03700 
0.09900 0.13250 0.05400 
0.07700 0.10550 -0.06050 
0.09500 0.08000 0.04600 
0.06100 0.07950 -0.00950 