# vtk DataFile Version 2.0 
Xm, Ym, Zm, Uvecs, timestep 10166 
ASCII 
 
DATASET POLYDATA POINTS 456 float 
  4.189   6.151 -70.666 
  5.314   3.728 -69.233 
  4.443  -0.730 -70.638 
  7.572   7.902 -72.163 
  1.941   1.201 -71.886 
 -2.080   6.005 -69.076 
  4.158   2.009 -68.618 
  4.904   6.633 -74.725 
 -2.361   4.555 -70.593 
 -0.856  -2.542 -72.646 
  2.607  -8.929 -64.013 
  1.167   6.476 -67.491 
 -5.238   8.195 -70.131 
 -0.972  -9.864 -70.998 
  9.598   6.877 -70.696 
  2.670   4.424 -67.094 
  2.060   7.547 -68.215 
  6.693   5.363 -73.683 
  6.316  -0.758 -68.416 
 -2.194   9.041 -67.972 
  3.987   8.289 -67.695 
  7.385   3.024 -67.520 
  4.058   7.147 -68.216 
 -9.954   1.829 -70.778 
  2.037   5.486 -68.620 
 -7.530  -4.878 -71.751 
  5.503 -10.805 -73.487 
 -4.893   4.421 -69.206 
 -2.111 -10.661 -70.049 
 10.172   2.015 -67.373 
  0.285  -2.633 -68.989 
 -6.292  -3.743 -73.272 
-11.097   3.399 -71.367 
 -0.019   3.116 -67.440 
 -0.011   9.656 -72.764 
  2.228   1.096 -68.013 
  7.335   0.760 -71.793 
 -7.600  -1.313 -69.973 
 -7.980  13.161 -64.066 
  7.502   9.027 -70.070 
  5.886   4.922 -67.268 
 -3.822  -2.750 -70.514 
 -1.825  -7.399 -72.655 
 -2.291   8.229 -70.572 
 -7.552   4.934 -65.725 
  0.497   8.446 -76.142 
  1.675  -5.210 -66.676 
  3.940   6.627 -67.535 
 -0.021   6.855 -72.743 
  1.511   5.871 -68.776 
 -1.488  -1.916 -67.798 
 -7.039   2.630 -66.410 
 -8.466   9.787 -71.417 
 -6.729  -9.859 -68.841 
 -0.413   0.475 -67.752 
 -4.098  -6.962 -68.713 
 10.617  -0.714 -66.105 
  2.024   3.195 -64.971 
 -5.340  -5.716 -69.582 
 -7.681  -3.635 -74.895 
  8.994   8.014 -70.236 
  4.048   8.479 -70.002 
 12.890  -1.281 -71.568 
  0.352  11.436 -71.501 
  1.603   8.913 -69.756 
 -9.434   7.424 -77.996 
 -3.041  -3.334 -71.809 
 -0.171   2.857 -72.393 
  4.334  -2.753 -62.588 
  9.828   8.940 -68.465 
  3.187  -4.491 -73.040 
 12.428   7.861 -70.232 
  7.032  -8.254 -70.811 
 -2.226   5.061 -67.750 
 14.110   5.265 -69.636 
 14.484   9.339 -71.145 
  0.762  -2.928 -72.153 
  0.891   6.430 -69.512 
 -3.627   0.514 -66.623 
 -8.913   7.115 -71.937 
  7.979  -1.111 -65.655 
 17.614   6.015 -69.982 
 10.470   9.427 -68.992 
 -9.914  11.297 -72.725 
  4.066   9.053 -62.795 
 -9.191   8.950 -66.651 
  7.694 -12.908 -69.454 
-11.398   2.526 -69.398 
  2.399  -3.024 -63.719 
 -5.111   1.562 -66.232 
 13.340   0.264 -71.079 
 -9.223   4.720 -63.273 
  1.661   5.955 -74.043 
  1.653   6.596 -67.536 
 11.846   3.336 -69.641 
  2.115  -6.046 -69.883 
 -4.498   0.650 -63.385 
 10.191  -3.852 -70.150 
-11.590   8.293 -66.662 
 -6.324  -6.498 -62.073 
  8.080  -2.851 -69.107 
 11.321 -11.813 -71.982 
  2.713   3.792 -65.597 
 -8.420   6.486 -67.543 
 14.794 -12.968 -71.081 
 -7.248 -10.649 -69.585 
 11.800  10.021 -65.613 
 -9.886  -4.632 -64.115 
 -2.087  -8.633 -68.162 
-11.838  10.115 -63.686 
 10.595  -5.849 -68.702 
  5.238   1.655 -72.316 
 -4.737  -4.380 -63.073 
 -3.245 -10.538 -67.807 
 -1.992  11.034 -71.706 
-12.953  10.480 -71.365 
 16.318  -4.414 -71.194 
  5.427   7.620 -62.612 
  3.857   0.165 -72.202 
 -0.526  -4.582 -68.638 
 13.671   3.649 -69.391 
  4.043  -9.081 -63.541 
  7.516   9.329 -62.507 
 -5.742 -11.951 -69.721 
  2.785  -9.456 -66.296 
 14.799   6.980 -67.946 
 -8.883   8.555 -63.767 
  3.918 -10.236 -72.483 
-11.349   6.972 -69.505 
-12.730   2.239 -69.344 
 -8.175   5.463 -69.179 
 -2.056  -2.164 -71.967 
 -5.331   1.609 -62.813 
-11.245   3.577 -76.255 
  0.762   2.615 -62.174 
 -6.324   4.343 -65.629 
 12.384  -0.145 -72.861 
 -2.353  -7.366 -65.468 
 -1.743  -9.486 -67.702 
  4.346   0.822 -64.787 
 11.891  11.706 -73.498 
  2.458   7.529 -76.919 
 16.395   1.984 -67.868 
 16.881   1.252 -68.459 
 -6.585   4.450 -65.932 
 14.476  -8.458 -69.801 
  5.904   5.724 -63.165 
 12.070   9.533 -70.240 
 -8.768   4.755 -68.967 
-13.620   9.698 -73.431 
 10.977   3.766 -66.367 
  3.902  -5.151 -72.343 
 -5.201  -7.021 -70.712 
  6.260  12.855 -64.475 
  0.134  -5.658 -68.612 
 -0.559 -11.224 -69.096 
 -6.848  -1.025 -63.770 
  5.896  -9.473 -70.958 
  4.457   4.811 -64.626 
-10.839  -2.869 -63.618 
 -7.319  -2.644 -61.210 
  7.780   2.088 -61.358 
 -2.075  -0.806 -71.629 
  6.072  -2.165 -69.265 
 -2.767 -10.046 -62.609 
  2.870 -10.690 -71.442 
  7.826   7.380 -65.309 
-10.866   9.559 -68.001 
 11.502  -5.466 -67.556 
 -4.414   9.689 -65.567 
-12.676  -3.540 -67.774 
 -8.867  -9.556 -66.249 
 -7.603  -9.268 -73.450 
 13.721   6.789 -68.537 
  9.294   7.232 -62.609 
  2.817   8.858 -65.518 
  1.807  -1.320 -67.096 
  6.823   7.323 -64.046 
-13.285  -4.314 -74.052 
  6.918   1.898 -67.507 
  4.308   2.221 -65.055 
-11.965  11.296 -67.642 
 -0.605  10.965 -70.834 
  1.888  -8.212 -68.582 
  9.816   9.638 -71.061 
 -6.234  12.363 -65.258 
 -2.705  -7.615 -66.066 
  8.951   2.513 -70.170 
  4.739   7.500 -64.679 
  1.320   6.579 -73.655 
 14.809   2.809 -70.326 
-13.050   5.161 -74.516 
 14.334   6.976 -72.924 
  5.652  -7.770 -68.009 
 13.123  -3.904 -73.022 
  2.763 -12.987 -66.814 
  2.377  -3.582 -72.610 
  4.345   5.341 -68.502 
 12.403   3.227 -68.001 
 -1.016  -7.713 -73.340 
 -2.149  -1.730 -68.489 
  8.117 -11.051 -72.312 
 -9.116  11.095 -69.062 
  7.150  -4.305 -69.089 
  5.851  -7.026 -69.192 
 -8.867   3.228 -62.175 
  2.292  -3.867 -71.882 
  3.726  -6.875 -64.034 
 14.607   0.635 -69.326 
 -2.968  12.260 -66.337 
-14.334  -8.697 -75.466 
 -7.550  -2.513 -65.594 
 15.685   3.037 -66.627 
  4.489  -4.329 -64.527 
 14.437  -7.463 -69.745 
-13.429   2.870 -77.732 
 15.512   6.388 -70.028 
  0.147  -5.854 -72.385 
-13.642   8.242 -67.614 
  5.430   7.950 -65.570 
 -1.315 -10.399 -70.894 
 13.706  -2.348 -71.819 
  3.171  -3.401 -68.064 
-10.986   0.712 -72.867 
  2.992  -2.609 -69.954 
  0.198  12.338 -67.829 
-13.599  -7.162 -74.795 
 10.154   7.140 -63.407 
 -8.986   5.526 -73.979 
  3.606  11.331 -67.142 
-14.111 -11.289 -68.205 
  1.624   5.416 -75.490 
 -3.282   2.730 -75.590 
 15.074  11.302 -67.171 
 -4.749   3.388 -68.075 
 -6.170 -10.241 -68.560 
 12.902 -12.325 -72.683 
-11.249   2.579 -61.838 
 15.720   3.129 -69.487 
 -9.037  -7.588 -69.533 
 12.233  -7.152 -70.909 
 -5.551  11.834 -72.989 
 13.441  -0.706 -71.869 
 10.632   2.231 -70.995 
 -2.200   5.604 -73.857 
-12.114   8.977 -71.453 
 -7.795   3.042 -66.843 
-10.246  -4.717 -71.248 
 -5.654  -7.796 -75.206 
 -4.088  11.715 -62.766 
 12.686  -2.002 -66.619 
-12.745   1.692 -76.495 
-10.111  12.171 -64.547 
-12.249   4.960 -76.731 
  6.517   3.729 -70.126 
  5.372  10.980 -65.322 
 -2.865  11.503 -63.876 
  1.881 -10.223 -66.145 
  1.759   8.612 -74.834 
  7.032   4.912 -62.996 
 12.982  -9.935 -70.638 
 -2.798  -4.873 -70.861 
 -1.041  10.197 -70.203 
 -8.700  -0.291 -75.082 
  6.063  -3.646 -70.532 
 -1.986  12.192 -72.891 
  7.908 -12.446 -69.775 
 -0.672  -8.374 -74.518 
 -1.062 -10.704 -68.580 
  5.626   6.697 -73.075 
 16.268   1.528 -72.636 
 -5.390   8.649 -72.469 
-14.406  -0.098 -76.109 
  8.710 -12.525 -69.772 
 10.397 -10.942 -72.311 
  4.311  10.835 -65.255 
 12.573   1.492 -62.862 
 -3.051   9.079 -61.361 
 -8.751   4.859 -62.145 
  5.566   4.829 -68.716 
-10.394  -2.977 -63.612 
 12.507   4.119 -61.018 
 -1.845  10.759 -62.549 
 16.051   7.271 -69.861 
  2.745   4.313 -71.097 
 -6.229   3.834 -74.520 
  5.674   2.663 -74.020 
  4.341   7.947 -74.231 
 -5.228 -11.045 -69.111 
  2.989  10.175 -71.635 
 -7.024   2.453 -70.819 
 -0.452 -10.030 -70.820 
 15.200   4.808 -72.407 
 -0.843   4.649 -70.113 
 -4.314  -5.550 -75.075 
 -8.904  11.630 -66.802 
 -5.790  -1.023 -71.251 
  4.995  11.262 -68.480 
  9.748  -6.364 -71.444 
  4.553   7.109 -73.021 
 -9.226  -6.159 -64.761 
 -6.793   8.672 -74.959 
 -2.688   1.648 -73.366 
 -7.717  -5.255 -74.243 
  6.438   4.986 -72.058 
  1.516  -0.929 -62.168 
  3.391  -3.851 -77.403 
  2.926  -6.896 -66.150 
  1.010   0.529 -61.308 
 -1.938   5.972 -63.156 
  0.281   5.322 -64.596 
 -1.551   6.947 -63.588 
-11.006  -0.971 -66.566 
 -5.133   2.792 -74.322 
 -2.552   6.050 -57.317 
 -5.963   8.120 -71.720 
 -2.691   1.604 -64.304 
  4.540   8.823 -76.089 
  5.075 -12.946 -66.710 
  0.609  -5.325 -74.073 
  7.468  -5.832 -74.537 
-13.756  -8.531 -66.527 
 16.529 -10.583 -69.139 
  5.619  -9.056 -75.152 
  5.713  12.275 -63.236 
-10.158  11.020 -70.188 
  2.216  -0.083 -64.125 
 -3.872  -8.460 -69.439 
 12.848  -4.464 -65.162 
 -0.210   0.021 -69.322 
  7.131   3.610 -69.756 
  5.040   9.911 -65.815 
  1.585  12.721 -64.059 
  3.797  -8.329 -75.169 
  4.866  -6.890 -63.953 
  0.064   7.803 -60.566 
 10.107  12.290 -70.006 
 12.932   9.879 -63.873 
  8.816  -0.976 -63.462 
-11.244   9.450 -73.044 
 -6.521  -3.458 -60.251 
 -2.702 -11.072 -71.248 
 -5.205  -0.162 -73.370 
  6.874 -11.370 -72.005 
  4.138  -6.657 -69.344 
-16.368   1.737 -73.871 
  8.694  -8.381 -67.372 
  8.047  11.274 -67.529 
 13.273  11.762 -70.709 
 -9.834   4.458 -62.557 
 11.353  -2.757 -72.758 
 -6.447 -10.721 -75.475 
  8.056 -10.602 -62.947 
 -5.704   3.069 -60.789 
  2.214  -5.963 -75.725 
  6.535  -6.930 -76.081 
 -5.425  -6.669 -66.786 
  5.309  -0.413 -68.033 
 13.145  -2.922 -63.742 
 -8.477 -11.720 -74.948 
  3.503 -10.600 -77.406 
-10.568  -5.813 -67.428 
 10.035   8.727 -60.342 
 -5.354   4.640 -74.833 
 16.841  -4.642 -65.258 
-11.515  11.240 -65.517 
 12.189  -5.695 -59.549 
 -3.010   0.869 -66.310 
 -5.191   0.412 -63.028 
-13.180   7.715 -75.253 
  7.297  -9.288 -61.495 
 13.980   9.103 -66.347 
  9.729   9.712 -74.880 
-11.116  -6.451 -72.920 
  5.784  -6.231 -72.826 
 -9.928 -10.525 -64.582 
 14.253  -3.691 -69.544 
 10.599 -13.121 -64.802 
  0.829   6.056 -67.388 
 10.126  -4.181 -68.577 
-13.194  -0.077 -67.844 
  4.680 -10.032 -65.855 
 -4.890  -9.303 -68.261 
  1.468  -0.132 -60.364 
  5.480  -7.735 -69.666 
 -2.292  -1.121 -59.883 
  8.363   3.676 -61.767 
 14.418   7.431 -67.933 
 12.526  -5.216 -64.606 
  7.205  11.194 -66.321 
-15.321   3.774 -75.503 
 10.645   3.495 -72.825 
  4.236   6.058 -61.616 
 12.963 -12.102 -69.866 
  0.879  10.062 -74.034 
-12.305  -3.672 -73.064 
 -6.636  -0.866 -72.846 
 16.523  -4.886 -64.422 
 16.218  -7.588 -67.858 
 15.216 -11.487 -65.242 
 10.958  -4.884 -73.166 
  7.002  10.637 -69.733 
  7.923 -10.448 -69.690 
  1.773  -4.118 -59.444 
 -7.783  11.176 -64.413 
 -5.114  -1.161 -73.714 
 13.663   9.310 -68.337 
 -9.253  11.214 -60.307 
 14.309  -2.195 -72.016 
 13.390   3.612 -64.557 
 -9.345   4.774 -77.251 
  9.738  -1.274 -67.174 
 11.958  -6.105 -67.118 
-11.901   2.232 -63.072 
 10.698  -3.867 -62.007 
-10.957   6.915 -70.465 
  1.339  11.665 -75.655 
  4.368  -1.135 -66.163 
 -8.480  -6.909 -70.698 
 -7.521  13.098 -64.612 
 12.759  -5.542 -76.464 
  5.546  -2.482 -61.774 
 -8.263  -3.864 -71.070 
-15.307  -7.725 -67.877 
 -5.851  10.575 -63.198 
  5.273   4.694 -67.294 
 15.967   3.750 -67.368 
 -4.051  -3.074 -69.209 
 -6.466   0.847 -73.590 
 -2.705  -7.703 -72.897 
-10.980  13.555 -66.599 
 -3.066   9.942 -72.892 
  8.680  11.459 -69.478 
 -9.931   0.204 -74.993 
  6.119  -1.886 -69.489 
  4.455   1.387 -60.930 
-13.165   2.005 -71.010 
  2.513  -7.435 -71.818 
 12.198  -0.097 -70.317 
 -9.353   2.134 -77.715 
 -2.922  10.736 -73.007 
-12.807  -3.481 -75.537 
  2.726  -6.629 -69.270 
 -6.486   0.548 -71.268 
 10.927 -10.428 -68.552 
 14.814  -9.167 -65.251 
  5.851   6.876 -66.733 
  7.079  -9.631 -74.056 
  1.530  10.993 -60.318 
 12.419 -12.401 -64.441 
  4.258  -1.797 -60.808 
  7.648  -0.917 -67.477 
 -6.282   6.693 -77.002 
 -7.737 -10.381 -65.448 
  9.460  -8.753 -63.261 
  2.774   5.193 -73.101 

 VERTICES 456 912 
1 0 
1 1 
1 2 
1 3 
1 4 
1 5 
1 6 
1 7 
1 8 
1 9 
1 10 
1 11 
1 12 
1 13 
1 14 
1 15 
1 16 
1 17 
1 18 
1 19 
1 20 
1 21 
1 22 
1 23 
1 24 
1 25 
1 26 
1 27 
1 28 
1 29 
1 30 
1 31 
1 32 
1 33 
1 34 
1 35 
1 36 
1 37 
1 38 
1 39 
1 40 
1 41 
1 42 
1 43 
1 44 
1 45 
1 46 
1 47 
1 48 
1 49 
1 50 
1 51 
1 52 
1 53 
1 54 
1 55 
1 56 
1 57 
1 58 
1 59 
1 60 
1 61 
1 62 
1 63 
1 64 
1 65 
1 66 
1 67 
1 68 
1 69 
1 70 
1 71 
1 72 
1 73 
1 74 
1 75 
1 76 
1 77 
1 78 
1 79 
1 80 
1 81 
1 82 
1 83 
1 84 
1 85 
1 86 
1 87 
1 88 
1 89 
1 90 
1 91 
1 92 
1 93 
1 94 
1 95 
1 96 
1 97 
1 98 
1 99 
1 100 
1 101 
1 102 
1 103 
1 104 
1 105 
1 106 
1 107 
1 108 
1 109 
1 110 
1 111 
1 112 
1 113 
1 114 
1 115 
1 116 
1 117 
1 118 
1 119 
1 120 
1 121 
1 122 
1 123 
1 124 
1 125 
1 126 
1 127 
1 128 
1 129 
1 130 
1 131 
1 132 
1 133 
1 134 
1 135 
1 136 
1 137 
1 138 
1 139 
1 140 
1 141 
1 142 
1 143 
1 144 
1 145 
1 146 
1 147 
1 148 
1 149 
1 150 
1 151 
1 152 
1 153 
1 154 
1 155 
1 156 
1 157 
1 158 
1 159 
1 160 
1 161 
1 162 
1 163 
1 164 
1 165 
1 166 
1 167 
1 168 
1 169 
1 170 
1 171 
1 172 
1 173 
1 174 
1 175 
1 176 
1 177 
1 178 
1 179 
1 180 
1 181 
1 182 
1 183 
1 184 
1 185 
1 186 
1 187 
1 188 
1 189 
1 190 
1 191 
1 192 
1 193 
1 194 
1 195 
1 196 
1 197 
1 198 
1 199 
1 200 
1 201 
1 202 
1 203 
1 204 
1 205 
1 206 
1 207 
1 208 
1 209 
1 210 
1 211 
1 212 
1 213 
1 214 
1 215 
1 216 
1 217 
1 218 
1 219 
1 220 
1 221 
1 222 
1 223 
1 224 
1 225 
1 226 
1 227 
1 228 
1 229 
1 230 
1 231 
1 232 
1 233 
1 234 
1 235 
1 236 
1 237 
1 238 
1 239 
1 240 
1 241 
1 242 
1 243 
1 244 
1 245 
1 246 
1 247 
1 248 
1 249 
1 250 
1 251 
1 252 
1 253 
1 254 
1 255 
1 256 
1 257 
1 258 
1 259 
1 260 
1 261 
1 262 
1 263 
1 264 
1 265 
1 266 
1 267 
1 268 
1 269 
1 270 
1 271 
1 272 
1 273 
1 274 
1 275 
1 276 
1 277 
1 278 
1 279 
1 280 
1 281 
1 282 
1 283 
1 284 
1 285 
1 286 
1 287 
1 288 
1 289 
1 290 
1 291 
1 292 
1 293 
1 294 
1 295 
1 296 
1 297 
1 298 
1 299 
1 300 
1 301 
1 302 
1 303 
1 304 
1 305 
1 306 
1 307 
1 308 
1 309 
1 310 
1 311 
1 312 
1 313 
1 314 
1 315 
1 316 
1 317 
1 318 
1 319 
1 320 
1 321 
1 322 
1 323 
1 324 
1 325 
1 326 
1 327 
1 328 
1 329 
1 330 
1 331 
1 332 
1 333 
1 334 
1 335 
1 336 
1 337 
1 338 
1 339 
1 340 
1 341 
1 342 
1 343 
1 344 
1 345 
1 346 
1 347 
1 348 
1 349 
1 350 
1 351 
1 352 
1 353 
1 354 
1 355 
1 356 
1 357 
1 358 
1 359 
1 360 
1 361 
1 362 
1 363 
1 364 
1 365 
1 366 
1 367 
1 368 
1 369 
1 370 
1 371 
1 372 
1 373 
1 374 
1 375 
1 376 
1 377 
1 378 
1 379 
1 380 
1 381 
1 382 
1 383 
1 384 
1 385 
1 386 
1 387 
1 388 
1 389 
1 390 
1 391 
1 392 
1 393 
1 394 
1 395 
1 396 
1 397 
1 398 
1 399 
1 400 
1 401 
1 402 
1 403 
1 404 
1 405 
1 406 
1 407 
1 408 
1 409 
1 410 
1 411 
1 412 
1 413 
1 414 
1 415 
1 416 
1 417 
1 418 
1 419 
1 420 
1 421 
1 422 
1 423 
1 424 
1 425 
1 426 
1 427 
1 428 
1 429 
1 430 
1 431 
1 432 
1 433 
1 434 
1 435 
1 436 
1 437 
1 438 
1 439 
1 440 
1 441 
1 442 
1 443 
1 444 
1 445 
1 446 
1 447 
1 448 
1 449 
1 450 
1 451 
1 452 
1 453 
1 454 
1 455 
POINT_DATA 456 
SCALARS MeanU double 1 
LOOKUP_TABLE default
0.18133 
0.12802 
0.21897 
0.10496 
0.16428 
0.19858 
0.10725 
0.17119 
0.17396 
0.12171 
0.10841 
0.09270 
0.15310 
0.09045 
0.12449 
0.14768 
0.06358 
0.25596 
0.11387 
0.08110 
0.08351 
0.14022 
0.07968 
0.13055 
0.12427 
0.14473 
0.11201 
0.15767 
0.13169 
0.10311 
0.28406 
0.16098 
0.17154 
0.08189 
0.10896 
0.24190 
0.20576 
0.18767 
0.12401 
0.08936 
0.12918 
0.22977 
0.11589 
0.15174 
0.14685 
0.10587 
0.24507 
0.08406 
0.20007 
0.12377 
0.22899 
0.20095 
0.11275 
0.14281 
0.22388 
0.19499 
0.28734 
0.12206 
0.23356 
0.07810 
0.08665 
0.04574 
0.20789 
0.15628 
0.06824 
0.13362 
0.19465 
0.18701 
0.26573 
0.05987 
0.19450 
0.09133 
0.11068 
0.16321 
0.15817 
0.14043 
0.33779 
0.11207 
0.18194 
0.17358 
0.26713 
0.26816 
0.07327 
0.10051 
0.10878 
0.07911 
0.08168 
0.13076 
0.20875 
0.18054 
0.19204 
0.11202 
0.22229 
0.11855 
0.06076 
0.16327 
0.19086 
0.33166 
0.16532 
0.28842 
0.23310 
0.13352 
0.14306 
0.11120 
0.07702 
0.10760 
0.04044 
0.13743 
0.17480 
0.06719 
0.23854 
0.19939 
0.19718 
0.09525 
0.12733 
0.16212 
0.13837 
0.04052 
0.19748 
0.27759 
0.12162 
0.07888 
0.10999 
0.12033 
0.16643 
0.11968 
0.13711 
0.09539 
0.11666 
0.10249 
0.11614 
0.16710 
0.19967 
0.06765 
0.09134 
0.21253 
0.18345 
0.16209 
0.22422 
0.10476 
0.17874 
0.19599 
0.14073 
0.12708 
0.20595 
0.06797 
0.07301 
0.12490 
0.10666 
0.24354 
0.10574 
0.19360 
0.11981 
0.09893 
0.23567 
0.12701 
0.14900 
0.09378 
0.11890 
0.17047 
0.18651 
0.17578 
0.18865 
0.14536 
0.09213 
0.10059 
0.07293 
0.09323 
0.24744 
0.08551 
0.21136 
0.10567 
0.11162 
0.11912 
0.04745 
0.07885 
0.33587 
0.11008 
0.15984 
0.13419 
0.12654 
0.08419 
0.09361 
0.21166 
0.10418 
0.10976 
0.28602 
0.11484 
0.19739 
0.13202 
0.16789 
0.18879 
0.22749 
0.15691 
0.25397 
0.09624 
0.30763 
0.15881 
0.04439 
0.11703 
0.33880 
0.13068 
0.11408 
0.24206 
0.13024 
0.14896 
0.21937 
0.27761 
0.20644 
0.18121 
0.14366 
0.24557 
0.13287 
0.24700 
0.05628 
0.21252 
0.20289 
0.23476 
0.08161 
0.16863 
0.08996 
0.16489 
0.24595 
0.16973 
0.27456 
0.25030 
0.14550 
0.06363 
0.15808 
0.08920 
0.15318 
0.17517 
0.18314 
0.12289 
0.13068 
0.13983 
0.10389 
0.15375 
0.18707 
0.18008 
0.06976 
0.19390 
0.17051 
0.11669 
0.19372 
0.14923 
0.23347 
0.04540 
0.06380 
0.22755 
0.35901 
0.14828 
0.06977 
0.05862 
0.19205 
0.03322 
0.13793 
0.17017 
0.12371 
0.06370 
0.06570 
0.16939 
0.08091 
0.13577 
0.24975 
0.14286 
0.10734 
0.08451 
0.06396 
0.12664 
0.20738 
0.19871 
0.16036 
0.10431 
0.05380 
0.07571 
0.17466 
0.09019 
0.15714 
0.17133 
0.19881 
0.12107 
0.09039 
0.14804 
0.18229 
0.13148 
0.19896 
0.09369 
0.08403 
0.04999 
0.13216 
0.07890 
0.21530 
0.19085 
0.22875 
0.08105 
0.18586 
0.14349 
0.26907 
0.16882 
0.19794 
0.16322 
0.19743 
0.09753 
0.27156 
0.06861 
0.10793 
0.08132 
0.09655 
0.09188 
0.11570 
0.10005 
0.21444 
0.13665 
0.13485 
0.20848 
0.19316 
0.12192 
0.07858 
0.11492 
0.15755 
0.21358 
0.11178 
0.15818 
0.23730 
0.08731 
0.19232 
0.08441 
0.28637 
0.29498 
0.15076 
0.06239 
0.11200 
0.14887 
0.13782 
0.15578 
0.18099 
0.11174 
0.15876 
0.16551 
0.13531 
0.10515 
0.20962 
0.11242 
0.20582 
0.15715 
0.18883 
0.24149 
0.14100 
0.19966 
0.24864 
0.09934 
0.05944 
0.21950 
0.12206 
0.14089 
0.24621 
0.06629 
0.20515 
0.06178 
0.13427 
0.11937 
0.07521 
0.20646 
0.07469 
0.10572 
0.20888 
0.18162 
0.15123 
0.21627 
0.16156 
0.19456 
0.18597 
0.14536 
0.15418 
0.14665 
0.21947 
0.05740 
0.05489 
0.21395 
0.17991 
0.11321 
0.15819 
0.06300 
0.15740 
0.16490 
0.12697 
0.17469 
0.14377 
0.14509 
0.20587 
0.21989 
0.08542 
0.09083 
0.07479 
0.21371 
0.21813 
0.07414 
0.07282 
0.11329 
0.28550 
0.07943 
0.06273 
0.16004 
0.12671 
0.23819 
0.12349 
0.22233 
0.15558 
0.15119 
0.09997 
0.26962 
0.24160 
0.12433 
0.32335 
0.10501 
0.16323 
0.14281 
0.23340 
0.11738 
0.12760 
0.31929 
0.11873 
0.12157 
0.11808 
0.15848 
0.12596 
0.30046 
0.13309 
0.24550 
0.09030 
0.18413 
0.19012 
0.13150 
0.13670 
0.24130 
0.17121 
0.08406 
0.20681 
0.15180 
0.12860 
0.15131 
0.19112 
0.17804 
0.12879 
0.08715 
0.20414 
0.10879 
0.13109 
0.08812 
0.22253 
0.12378 
0.13214 
0.08427 
0.12872 
0.17586 

 VECTORS Umean float 
0.03200 0.03750 -0.17450 
0.02550 0.05750 -0.11150 
0.12100 0.08500 -0.16150 
0.10450 0.00950 0.00250 
0.10450 0.10600 -0.06950 
0.02000 0.10150 -0.16950 
0.07300 0.07800 0.00950 
0.03850 0.01000 -0.16650 
0.01100 0.12100 -0.12450 
0.04900 0.07650 -0.08100 
-0.06500 0.03800 -0.07800 
0.01300 0.03700 -0.08400 
-0.04250 0.09650 -0.11100 
0.04100 0.03200 -0.07400 
0.09650 -0.04200 -0.06650 
0.05600 0.05850 -0.12350 
0.00200 -0.01150 -0.06250 
0.05000 0.06100 -0.24350 
0.07450 0.01900 -0.08400 
-0.06550 0.04750 0.00550 
-0.01450 -0.01100 -0.08150 
-0.04000 0.05300 -0.12350 
-0.01600 -0.00300 -0.07800 
0.08750 0.06750 -0.06950 
0.03450 0.01450 -0.11850 
0.07900 0.11200 -0.04650 
0.08800 0.05550 -0.04150 
0.11850 0.10400 0.00050 
0.09400 0.09200 -0.00650 
0.02350 0.06000 -0.08050 
0.11150 0.07750 -0.24950 
0.06500 0.09200 -0.11500 
0.13950 0.07400 -0.06700 
0.02400 0.07100 -0.03300 
0.01700 0.10650 0.01550 
0.10900 0.12300 -0.17750 
0.08350 0.08350 -0.16850 
0.12700 0.13550 0.02700 
-0.07750 0.09450 0.02100 
0.02400 -0.06450 -0.05700 
0.06050 0.05850 -0.09800 
0.09800 0.04450 -0.20300 
0.04550 0.07100 -0.07950 
-0.06600 0.04050 -0.13050 
0.08600 0.10450 0.05700 
-0.03850 0.06100 -0.07750 
-0.02500 0.01200 -0.24350 
0.05400 -0.01750 -0.06200 
0.07800 0.07450 -0.16850 
0.00700 0.02950 -0.12000 
0.09650 0.10000 -0.18200 
0.15600 0.12500 -0.02050 
-0.03550 0.05550 -0.09150 
0.12300 0.07200 -0.00900 
0.15450 0.02850 -0.15950 
0.17750 0.07900 -0.01650 
0.02400 0.03650 -0.28400 
-0.00850 -0.00800 -0.12150 
0.15200 0.15250 -0.09050 
-0.03850 0.03700 -0.05700 
0.06550 -0.03700 -0.04300 
-0.01700 -0.04150 -0.00900 
0.03200 0.07300 -0.19200 
-0.15200 -0.01400 0.03350 
-0.06750 0.00050 -0.01000 
0.04050 0.06500 -0.10950 
0.06600 0.01500 -0.18250 
0.03850 0.04650 -0.17700 
0.05000 0.12050 -0.23150 
-0.00700 -0.04000 -0.04400 
0.15000 0.08000 -0.09450 
0.01550 0.08450 -0.03100 
0.08800 0.03200 -0.05900 
0.06800 0.05450 -0.13800 
0.04250 0.11950 -0.09450 
0.06200 -0.02500 -0.12350 
0.09850 0.14350 -0.28950 
0.00750 0.01350 -0.11100 
0.12550 0.05650 -0.11900 
0.01550 0.09100 -0.14700 
0.12600 0.04850 -0.23050 
0.08450 0.20950 -0.14450 
0.02650 -0.02250 -0.06450 
-0.02700 0.04900 -0.08350 
0.09900 0.04250 -0.01500 
-0.02800 0.00850 -0.07350 
0.06000 0.05400 0.01250 
0.11700 0.05300 -0.02450 
-0.01400 -0.04200 -0.20400 
0.14600 0.08550 -0.06300 
-0.00900 0.16750 -0.09350 
0.10350 0.04250 0.00550 
0.08300 0.06850 -0.19450 
0.01700 0.03800 -0.11100 
0.00650 -0.02500 -0.05500 
0.10950 0.07250 -0.09700 
0.15100 0.11500 -0.02000 
0.25900 -0.02200 -0.20600 
0.02950 0.15100 0.06050 
-0.07650 0.07050 -0.26900 
0.10900 0.00450 -0.20600 
0.07400 0.09450 -0.05850 
0.03850 0.05100 -0.12800 
0.00800 0.07300 -0.08350 
0.05000 -0.02150 -0.05450 
0.05650 0.06400 -0.06550 
0.00700 0.03500 -0.01900 
0.10250 0.05250 -0.07500 
0.12700 0.05150 -0.10850 
0.00700 0.06500 0.01550 
0.14200 0.00800 -0.19150 
0.13100 0.11650 -0.09500 
0.05750 -0.00650 -0.18850 
0.08050 0.02950 -0.04150 
-0.12150 0.01900 0.03300 
0.06450 0.08650 -0.12100 
0.03300 -0.01000 -0.13400 
0.03300 -0.00100 -0.02350 
0.11150 0.11550 -0.11500 
0.13950 0.03450 -0.23750 
-0.00150 0.09650 -0.07400 
-0.04250 0.05150 -0.04200 
0.09100 0.05400 0.03000 
0.06250 0.08350 0.06000 
0.05500 0.02550 -0.15500 
0.06250 0.07950 -0.06400 
0.10000 0.06300 0.06950 
0.08550 0.03700 -0.02050 
0.01700 0.11300 0.02350 
0.03700 0.09500 0.01050 
0.06250 0.09000 -0.03850 
0.06050 0.14850 -0.04700 
0.05600 0.16500 -0.09750 
0.01400 0.03000 -0.05900 
0.01950 -0.08900 0.00650 
0.15050 0.15000 -0.00450 
0.01400 0.11150 -0.14500 
0.06750 0.02000 -0.14600 
0.17450 0.08400 -0.11300 
0.07550 0.02550 -0.06800 
0.05000 -0.03250 -0.16850 
0.01100 0.09950 -0.16850 
-0.07050 0.12150 -0.00850 
-0.08850 0.08950 -0.01750 
0.13100 0.15850 0.01150 
0.04650 -0.03700 -0.03300 
-0.03250 -0.06500 0.00700 
0.05450 0.05500 -0.09800 
0.07950 0.04850 -0.05200 
0.05350 0.15850 -0.17700 
0.03300 0.09300 -0.03800 
0.13050 0.08700 -0.11350 
0.01300 0.09600 -0.07050 
-0.01500 -0.03450 0.09150 
0.14400 0.04100 -0.18200 
0.10550 0.07050 -0.00550 
0.04350 0.13400 -0.04850 
0.07850 0.04050 -0.03150 
0.04550 0.05600 -0.09450 
0.04950 0.11050 -0.12000 
-0.00300 0.02350 -0.18500 
0.01950 0.11500 -0.13150 
0.02150 0.16300 -0.09250 
0.07750 0.03100 -0.11900 
0.09100 -0.01350 -0.00500 
0.09050 0.03800 -0.02200 
0.04200 -0.01150 -0.05850 
-0.02300 0.05650 -0.07050 
0.10850 0.01300 -0.22200 
-0.05600 0.05400 -0.03550 
0.20550 0.00950 0.04850 
0.03650 0.08150 -0.05650 
0.08150 0.03550 -0.06750 
0.05800 0.08500 -0.06000 
-0.02300 0.04150 -0.00050 
0.01300 0.07650 -0.01400 
0.16400 0.07050 -0.28450 
0.10600 -0.02400 -0.01750 
0.10050 0.12400 0.00850 
-0.01850 -0.01550 -0.13200 
0.08950 -0.00900 -0.08900 
0.03250 0.05050 -0.05900 
-0.08750 0.02450 0.02250 
0.19700 0.01700 -0.07550 
0.06950 0.00400 -0.07750 
-0.07050 0.07400 -0.04000 
0.20650 -0.01250 -0.19750 
-0.00450 -0.02500 -0.11200 
0.11000 0.12150 -0.11000 
0.02300 -0.00000 -0.13000 
-0.07500 0.14950 -0.01450 
0.08400 0.12300 -0.11600 
0.07350 0.13400 -0.16850 
0.13350 0.07600 0.03200 
0.04650 -0.04550 -0.24550 
0.08500 0.01200 0.04350 
0.09550 0.12150 -0.26600 
0.11100 -0.00400 -0.11350 
-0.02550 0.03000 -0.02050 
0.05650 0.02650 -0.09900 
0.14050 0.16800 -0.25850 
0.09950 0.08300 -0.01700 
-0.02550 0.04650 -0.10100 
0.09500 0.00800 -0.22250 
0.12050 0.04900 -0.00650 
0.09400 0.04600 0.10600 
0.04400 0.12750 -0.17300 
-0.01650 0.11850 -0.25050 
0.09650 0.14600 -0.10950 
-0.16450 0.06300 0.04250 
0.02450 0.13650 -0.03750 
0.13600 0.17750 -0.10150 
-0.05800 0.11300 -0.03900 
0.07600 0.10350 -0.21100 
0.02500 -0.02550 -0.04350 
0.02600 0.20700 -0.04050 
0.05850 0.14300 -0.13150 
0.03450 0.13350 -0.19000 
0.00650 0.00750 -0.08100 
0.09650 0.11350 -0.07900 
0.00700 0.08100 0.03850 
0.06650 0.05500 -0.14050 
0.08250 0.02800 -0.23000 
0.09350 0.14150 -0.00650 
0.11650 0.07350 -0.23750 
-0.18150 -0.08400 0.15050 
0.07100 0.11950 0.04300 
0.02250 -0.03150 0.05050 
0.01150 0.11850 -0.10400 
-0.08450 -0.01550 -0.02400 
0.03950 -0.00100 -0.14800 
0.06000 0.07300 -0.14750 
0.09400 0.14400 -0.06300 
0.11700 0.03150 0.02050 
0.03250 0.09000 -0.08900 
0.11850 0.06050 0.04300 
0.03450 -0.04100 -0.08900 
0.09350 0.12100 -0.01600 
-0.07100 0.15500 -0.07700 
0.12650 0.12000 -0.04500 
0.06550 0.01400 -0.01950 
-0.13300 0.13250 -0.04850 
0.01550 0.12400 -0.11600 
-0.07000 0.03750 -0.08550 
0.02550 0.15150 -0.11800 
-0.02050 0.10250 -0.10650 
0.18300 0.10450 0.10050 
0.03350 0.01350 -0.02750 
-0.00450 0.00900 -0.06300 
-0.08950 0.07450 0.19550 
0.02950 0.04050 -0.35550 
0.01150 0.11650 -0.09100 
0.00150 0.06950 0.00600 
-0.02600 0.01450 -0.05050 
0.10850 0.07700 -0.13850 
0.00200 0.01300 0.03050 
-0.08750 0.04200 0.09800 
0.07350 0.05700 0.14250 
0.00800 0.07700 -0.09650 
0.01250 -0.01900 -0.05950 
0.06100 -0.02000 -0.01400 
0.06350 -0.00350 -0.15700 
-0.06650 0.04450 -0.01200 
-0.00350 0.13100 -0.03550 
0.08450 0.05700 -0.22800 
-0.12250 0.07350 0.00100 
0.09600 0.04800 0.00100 
0.04350 0.03300 -0.06450 
-0.00300 0.02450 0.05900 
0.02600 0.02450 -0.12150 
0.01000 0.18000 -0.10250 
0.02050 0.16650 -0.10650 
-0.05150 0.12750 -0.08250 
0.07950 0.06750 0.00200 
0.03150 0.02050 -0.03850 
-0.01300 0.02950 0.06850 
0.00900 0.01800 -0.17350 
0.05100 0.06950 -0.02650 
0.06700 0.11850 -0.07850 
0.03900 0.07200 -0.15050 
0.05700 0.09600 -0.16450 
0.01450 0.03150 0.11600 
0.05500 0.05850 0.04150 
0.09300 0.10200 -0.05350 
0.05900 0.02250 -0.17100 
0.02850 0.11800 -0.05050 
0.06050 0.07400 -0.17450 
0.07000 -0.01250 -0.06100 
0.05400 0.04400 -0.04700 
-0.03600 -0.03350 0.00900 
0.07550 0.08900 -0.06200 
0.05150 0.01800 -0.05700 
0.05650 0.18450 -0.09550 
-0.01550 0.05850 -0.18100 
0.01750 0.10300 -0.20350 
-0.00550 0.06650 -0.04600 
-0.03350 0.15000 -0.10450 
-0.08850 -0.07550 0.08400 
-0.03550 -0.02550 -0.26550 
0.02150 0.04600 -0.16100 
0.05850 0.04950 -0.18250 
-0.00250 0.13050 -0.09800 
0.01450 0.13100 -0.14700 
0.05600 0.03750 -0.07050 
0.09750 0.06100 -0.24600 
0.00700 -0.01300 -0.06700 
0.07950 0.04800 -0.05500 
-0.03800 0.00750 -0.07150 
0.07200 -0.06300 -0.01300 
0.08350 0.03750 -0.00800 
0.02150 0.07550 -0.08500 
0.08850 0.04650 -0.00400 
0.14700 0.15450 -0.02250 
0.06300 0.12100 -0.00800 
0.03500 0.07350 0.10750 
0.02750 0.17800 -0.10500 
0.16100 0.06950 -0.08100 
0.08000 -0.00050 -0.09200 
0.06550 0.03800 0.02100 
0.06000 0.05050 -0.08400 
0.05000 0.07450 -0.12950 
0.00350 0.05250 -0.20700 
-0.01300 -0.07800 -0.07900 
0.06300 0.05800 -0.13300 
-0.00850 -0.00850 0.23700 
-0.03500 0.01250 -0.07900 
0.10750 -0.11100 -0.11450 
-0.02150 0.03750 -0.07250 
0.16850 -0.00500 -0.23150 
0.06550 0.15850 -0.24000 
0.02400 0.09200 -0.11700 
-0.02000 0.04000 0.04350 
-0.04250 0.10350 0.00500 
0.08050 0.03900 -0.11900 
0.03400 0.06350 -0.11750 
0.05550 0.14450 0.01750 
-0.10000 -0.14250 -0.04950 
-0.07550 0.04500 0.06900 
0.10050 0.01850 -0.12150 
0.00950 0.10450 -0.12800 
0.01250 0.03350 -0.13050 
0.07750 0.06900 0.01700 
-0.03650 0.07450 -0.19250 
0.09900 0.02200 -0.04850 
0.06800 -0.09400 -0.17000 
0.02050 0.14400 -0.05950 
-0.01550 -0.03950 -0.18400 
0.02850 -0.14300 0.19250 
0.08850 0.02850 -0.10600 
0.14250 0.12900 -0.05400 
0.14500 -0.01400 -0.20150 
0.06250 0.01050 -0.07650 
0.03950 0.02300 -0.03800 
0.13500 0.09450 -0.14500 
0.07300 0.03950 -0.08950 
0.09500 0.03200 -0.09900 
0.16150 0.08550 -0.16500 
0.02300 0.05500 -0.02900 
0.10100 -0.01950 -0.17750 
0.00750 0.05600 0.02500 
0.09800 -0.01800 -0.09000 
0.08500 0.08000 0.02500 
-0.02700 0.02650 0.06500 
0.10200 0.17950 0.00150 
0.06300 -0.00700 -0.03950 
0.10450 -0.01250 0.01000 
0.07050 -0.02100 -0.19550 
0.11800 0.04650 -0.13000 
0.13950 0.04300 -0.03950 
0.03550 0.18950 -0.09800 
-0.13800 -0.01300 -0.08300 
-0.03350 -0.02100 -0.19050 
0.14050 -0.03400 -0.11700 
0.10550 -0.00050 -0.10000 
0.13500 0.01900 -0.07200 
0.00550 0.01750 -0.14550 
0.11450 0.06250 -0.17650 
0.02450 0.00650 0.05150 
0.02750 0.00050 -0.04750 
0.11800 -0.01850 -0.17750 
0.07000 0.15350 0.06250 
0.06450 0.01000 0.09250 
0.09350 0.10250 -0.07600 
0.00700 -0.01950 -0.05950 
0.13000 0.08700 0.01750 
0.07500 0.08250 -0.12150 
-0.04500 0.02750 -0.11550 
0.02900 0.08900 -0.14750 
0.07050 -0.07550 -0.10000 
-0.11500 -0.06000 0.06500 
0.01300 0.17600 -0.10600 
0.11000 0.04500 -0.18500 
-0.01250 -0.05950 -0.06000 
0.07100 -0.05650 0.00400 
-0.02950 0.01000 -0.06800 
0.13750 0.06050 -0.15200 
-0.02550 0.07150 -0.20450 
0.04850 -0.02100 -0.05200 
0.06050 -0.03150 -0.02550 
-0.03750 -0.04600 -0.09650 
0.01300 0.02000 -0.28450 
0.02750 -0.07450 0.00150 
0.05750 0.02500 -0.00200 
0.10300 0.02200 -0.12050 
-0.06950 0.10100 -0.03200 
0.02800 0.06650 -0.22700 
0.01050 0.08800 -0.08600 
0.13900 0.17350 -0.00300 
0.02600 0.06800 -0.13750 
-0.09900 0.07800 0.08350 
0.00900 -0.00350 -0.09950 
0.10700 0.02700 -0.24600 
-0.01850 -0.08200 -0.22650 
0.07650 0.07550 0.06250 
0.19150 0.00450 -0.26050 
0.06200 0.06950 -0.04850 
-0.08300 -0.08750 -0.11000 
0.07400 0.01250 -0.12150 
0.19850 0.12050 -0.02350 
-0.09750 0.06350 0.01550 
0.03850 0.04750 -0.11200 
0.15950 0.10950 -0.25400 
0.06400 0.03800 -0.09250 
0.04550 0.04800 -0.10200 
0.01950 0.10900 0.04100 
0.12150 0.04650 -0.09050 
0.03100 0.11500 -0.04100 