# vtk DataFile Version 2.0 
Xm, Ym, Zm, Uvecs, timestep 10108 
ASCII 
 
DATASET POLYDATA POINTS 514 float 
 -1.635   2.398 -70.230 
  5.752   9.615 -72.215 
  3.381  -5.399 -70.822 
  5.197  -1.531 -71.512 
  0.714   8.232 -70.224 
 -0.110   6.258 -69.357 
  2.813  -1.045 -73.162 
  1.549  10.250 -66.695 
  0.317   5.643 -68.654 
 -9.880   5.902 -71.430 
  0.899   7.341 -67.385 
 -9.430   0.352 -71.981 
  4.285  12.743 -68.130 
  8.423   3.619 -70.236 
 -0.357   4.359 -75.752 
 -5.742   1.796 -70.657 
  0.754   9.537 -68.081 
  3.778  10.808 -70.308 
  4.023   8.919 -68.981 
  4.638  -0.361 -69.475 
 -3.875  -2.414 -70.955 
 -1.487  11.518 -74.401 
-11.067  10.972 -72.656 
 -2.146  -0.173 -71.149 
  6.282   2.029 -65.544 
  3.574  -2.027 -68.202 
  8.213  -3.248 -67.841 
  5.220   8.439 -74.248 
 -8.163   3.413 -75.729 
 10.294   5.950 -73.599 
 -2.538   7.700 -69.075 
  1.937   2.968 -69.130 
 -0.458  -1.602 -68.004 
 -1.395  10.163 -68.185 
  4.431   2.376 -71.004 
 10.544  -1.902 -68.171 
 -1.902 -10.813 -66.583 
 -1.446  11.663 -65.835 
  7.056   3.148 -67.678 
 -1.453  -6.559 -67.394 
  5.179 -10.380 -70.625 
 -3.705   4.470 -68.328 
 -1.292  10.280 -64.505 
 -1.656  -7.190 -69.734 
  6.377   1.840 -68.894 
 -3.394  11.575 -66.091 
  3.042   6.300 -64.743 
  5.668  11.383 -74.138 
  3.722  -2.192 -70.605 
  4.245   7.438 -71.315 
 -4.235   8.484 -64.278 
 11.528  -0.742 -66.834 
 -8.052  -1.736 -74.134 
 -1.183   9.349 -66.665 
 -1.108   1.042 -64.887 
 -8.313   8.268 -66.699 
-13.593  -7.714 -72.041 
  0.793  11.769 -64.252 
 13.975   3.824 -70.068 
 -2.226   3.413 -72.441 
 -8.785  10.348 -69.215 
 -5.844   7.134 -61.677 
-10.606  10.448 -70.563 
  1.587   5.707 -71.975 
  9.396  11.777 -66.446 
  1.039  -8.790 -65.496 
 -7.269  -3.531 -75.656 
  2.966   4.125 -70.338 
  8.254  -1.676 -66.216 
  3.807  -9.828 -67.930 
  5.903  -1.285 -70.840 
 -7.883   1.861 -68.474 
 -6.373  -0.047 -66.539 
 -7.499  -6.096 -72.615 
 -0.570  -9.307 -69.872 
 -5.091   3.219 -64.583 
 -1.772  -9.170 -69.651 
  7.247  -9.881 -67.297 
  6.127   7.040 -64.884 
 10.406 -10.936 -66.357 
  7.061  -3.841 -68.020 
 -9.800   9.220 -66.200 
 16.303   1.474 -74.867 
 17.407   9.849 -74.148 
 11.275   9.869 -69.635 
  3.016   4.944 -65.460 
 -4.086  -8.076 -64.630 
 -3.438   4.502 -64.154 
-12.256   7.808 -67.150 
  4.550  -5.440 -73.572 
  9.679   9.285 -67.725 
 13.670   2.269 -66.873 
 -8.954   8.927 -71.773 
 -3.210   7.420 -62.306 
 -6.058   7.951 -61.853 
 -5.915  10.931 -66.614 
 -3.228   1.757 -60.871 
  3.023   0.140 -65.906 
 -6.824   7.902 -75.858 
 -3.905   7.752 -63.211 
 -5.186   8.290 -65.949 
  6.173  10.518 -69.689 
  4.635 -11.990 -69.124 
  7.551   5.319 -67.842 
 -0.816   0.669 -71.416 
 -4.470  -6.290 -63.331 
-13.993   9.871 -72.470 
  1.695 -10.580 -67.119 
  3.602  -9.091 -68.078 
 -4.209   6.253 -65.130 
  0.528   4.861 -62.537 
 -6.974   4.196 -64.739 
  8.422  -0.777 -63.258 
 -2.885   9.963 -71.604 
  4.025  -4.571 -74.153 
-12.892   0.444 -68.579 
 -1.338 -11.137 -65.404 
 -8.484  -9.048 -66.335 
 -4.816   6.514 -61.221 
  3.454 -11.274 -67.060 
 12.802   5.500 -66.284 
 -2.846  10.590 -63.203 
  9.401  -9.096 -69.368 
-14.165  10.419 -74.105 
  9.287  -3.631 -66.641 
 14.406   7.927 -70.387 
 -2.267   4.596 -65.565 
 -0.448  -0.367 -62.284 
  6.799   2.037 -64.797 
-12.037  -8.662 -66.962 
-14.453   8.284 -69.939 
 14.703  -5.168 -70.516 
  2.298   2.377 -68.871 
  2.657   4.131 -65.108 
 -8.418  12.852 -66.541 
 -9.500  11.438 -64.650 
  8.483   0.830 -68.811 
  0.166   7.202 -65.325 
  0.813   9.490 -61.788 
  1.099   1.023 -61.857 
  0.431  -7.247 -65.351 
  6.043  -3.587 -68.679 
-14.977   9.588 -74.171 
 -2.995  -8.479 -69.065 
-13.793  -5.059 -69.768 
  4.259   5.521 -71.365 
  4.965  -2.269 -71.636 
-12.211  -0.946 -65.749 
 16.466  10.833 -73.094 
 -9.896  -0.481 -70.988 
  5.400  -5.048 -64.883 
 14.349   6.444 -66.922 
-12.954  -4.628 -69.694 
-10.228  -9.201 -67.138 
 -9.471  -7.078 -67.852 
 -5.822  -7.548 -64.192 
  6.537   8.166 -74.847 
  6.806  -4.598 -66.290 
  1.992   5.995 -64.656 
-12.274  -5.334 -74.237 
 -6.723   3.164 -62.656 
-10.831  -4.545 -71.808 
 -1.400  -4.561 -64.715 
  5.274 -12.654 -65.763 
-13.696  11.251 -74.640 
 11.679   1.147 -65.321 
  7.544   9.723 -68.797 
 -3.695   0.329 -71.679 
-10.212  -6.083 -72.971 
-12.496  12.555 -71.560 
 -3.644   2.166 -61.072 
 -9.259  -1.569 -68.240 
 -3.793  11.638 -74.470 
 -1.132  -1.800 -62.182 
-12.446  12.985 -67.714 
 16.256   7.264 -66.986 
 -8.215  -2.768 -66.489 
  8.227  -6.547 -65.548 
-10.262   0.712 -70.785 
-11.395  10.445 -66.479 
 -9.500   1.618 -59.624 
-14.185  -9.566 -72.893 
 11.869  -3.417 -69.020 
-13.537   6.107 -70.212 
-15.023   5.111 -71.184 
  6.642   9.017 -74.744 
  2.611  -8.215 -73.739 
 -6.383  -8.878 -66.584 
 11.548   4.244 -75.445 
  5.826  -3.053 -64.385 
 -9.487   2.763 -71.827 
-13.895   8.762 -69.375 
 -3.479 -11.666 -64.277 
-12.928   9.734 -66.826 
  4.101  -1.017 -60.290 
-13.562   0.312 -66.197 
  4.057  10.126 -69.954 
 -0.833  10.272 -70.314 
 -1.043   4.045 -65.154 
  8.696  10.281 -65.285 
  9.404 -11.354 -64.316 
 10.639  -1.505 -64.923 
  3.590  -4.555 -71.966 
  7.990  -6.239 -67.721 
 -5.492  -3.043 -68.016 
  1.406  -6.711 -76.398 
 -9.880   2.852 -63.158 
-12.046   2.372 -74.545 
 12.549   1.080 -66.917 
  5.065  11.532 -61.341 
  2.872  12.897 -66.725 
 -7.695  -5.253 -66.338 
 -4.950  -8.027 -67.604 
 10.247 -11.556 -72.045 
  4.196   2.221 -65.403 
 14.595   6.382 -69.406 
  1.783  -3.958 -63.387 
 -5.580  -3.299 -69.577 
 10.037   3.550 -61.541 
 -8.130  -4.880 -77.638 
  0.801  -9.999 -75.517 
  4.450  -4.079 -73.381 
 10.095   1.200 -62.290 
  9.960  -6.684 -66.012 
 -9.095  -9.026 -66.221 
 -3.824  -3.414 -65.874 
 16.687  11.543 -68.643 
-14.170   3.338 -73.724 
 15.125   9.563 -70.395 
 -6.383  -5.659 -75.972 
 11.028   0.840 -70.775 
  1.795   3.888 -72.684 
 16.954   1.099 -72.758 
 12.512   8.252 -68.322 
-15.034  -1.917 -75.418 
 -6.935  -5.349 -76.475 
-12.610  11.250 -65.834 
-11.973  -1.493 -64.682 
 -9.524   1.171 -67.861 
 11.541   7.149 -76.722 
  2.833  -9.678 -77.607 
 -2.595 -10.552 -65.052 
  5.577  -1.188 -65.409 
  8.911  -1.887 -66.492 
 17.340   2.354 -68.816 
 17.003  11.131 -67.864 
 -7.591   6.904 -63.165 
 -3.843  -0.824 -68.673 
 11.147   5.722 -65.201 
 -3.732   2.750 -67.843 
 -6.168 -12.095 -75.932 
 -5.521 -10.279 -70.370 
 16.261   3.922 -71.067 
-10.698  -2.930 -69.576 
 13.315  10.990 -69.115 
 -1.297  11.753 -70.825 
  2.910  11.584 -62.081 
 -1.364  -4.242 -64.797 
  8.906  -8.645 -73.268 
  1.305  -4.282 -65.545 
 -6.698 -10.606 -73.653 
 12.143  -2.716 -65.377 
 11.909  -0.928 -71.588 
 16.530  -6.854 -71.185 
 -2.007 -11.212 -69.132 
  0.915  -1.672 -71.915 
 -0.353  -0.331 -76.545 
 -5.867  -8.439 -72.108 
 -0.605  -6.681 -62.960 
 16.335   6.558 -66.335 
 11.225  12.515 -65.928 
 11.693  11.075 -68.474 
  8.950  11.364 -73.239 
 -0.580  -0.850 -63.070 
  9.654  -4.560 -64.967 
 12.522 -10.180 -68.042 
-15.318  -6.062 -75.285 
 13.551  -7.344 -64.209 
 -4.367  -7.167 -69.448 
  5.778 -12.560 -65.740 
  8.357   2.765 -68.864 
  1.366   6.170 -61.259 
 -7.765  -0.952 -62.718 
-14.345  -0.791 -74.922 
  6.569  -0.409 -68.686 
 17.046  -7.173 -69.462 
-13.933   7.899 -65.842 
 -3.584  -8.044 -74.108 
 -0.800  -5.125 -72.776 
 -4.563   8.888 -72.103 
 -8.465   8.547 -69.316 
 -6.566  -0.279 -69.989 
 -6.312   5.528 -72.579 
  2.972  -8.534 -72.573 
 -4.623   1.306 -72.577 
  3.900  -0.782 -69.334 
 -4.275   5.298 -70.084 
 -0.497   5.359 -68.620 
-16.215  -7.966 -75.279 
 12.261   6.917 -76.842 
 -8.133   1.529 -70.457 
-16.308  -6.572 -73.609 
  4.156  -0.246 -68.499 
  6.069   6.752 -72.234 
 -8.861  -0.848 -74.663 
 -5.469   8.785 -68.517 
 12.778  -5.707 -73.799 
 -6.456  -4.716 -66.649 
  1.230   5.715 -68.021 
-15.100  -4.501 -69.077 
 -5.064  -1.301 -66.671 
 -5.842   1.327 -64.429 
-11.748   5.589 -71.215 
 -9.180   0.046 -73.620 
 14.041  -4.914 -65.328 
 -5.592   4.619 -63.700 
 14.544  -8.953 -67.198 
 11.968  12.390 -73.510 
 -5.765  -0.459 -73.134 
 18.021  -5.850 -67.887 
 -1.423   7.540 -68.987 
 11.435  -7.818 -66.032 
  9.901  -9.511 -63.939 
  5.174  -6.162 -66.717 
-13.498   1.696 -67.678 
 16.268   3.879 -65.427 
  4.601  -9.797 -66.261 
  7.099   8.013 -74.493 
  7.548   1.218 -64.742 
 12.630 -10.925 -73.021 
  4.092  -1.078 -65.002 
 -9.003   2.103 -69.048 
 -1.743   2.784 -64.197 
 -3.712 -11.302 -68.192 
-10.096   3.201 -68.287 
-13.028   9.161 -68.225 
  8.379   3.760 -59.669 
 14.581  -7.008 -74.046 
 14.822   2.386 -68.495 
 -2.314  -4.182 -63.919 
  5.719 -11.714 -74.172 
 -5.729   5.565 -74.089 
 -2.277 -11.988 -64.751 
 -3.203  -7.380 -72.720 
 -7.140  -4.864 -62.701 
  4.983   3.741 -62.911 
-13.725  11.579 -67.642 
 -2.720   9.079 -68.416 
  3.696 -11.801 -65.960 
  2.767   0.580 -64.441 
 16.962  -0.655 -67.456 
  3.359   0.394 -62.078 
  9.415  -6.093 -62.592 
 -1.010   9.857 -71.737 
 -1.932 -10.333 -65.983 
-10.926   3.502 -70.232 
  4.035  -5.047 -71.685 
-10.904  -0.922 -70.697 
-10.601  -9.150 -64.442 
 -0.082  -6.931 -72.973 
 10.910   5.090 -68.710 
  2.453 -12.405 -64.493 
  2.085 -10.319 -64.760 
  5.732  -6.186 -72.161 
  2.065 -12.031 -73.725 
 -5.801  11.437 -60.871 
  1.938  -5.758 -62.379 
 -9.829   4.219 -64.266 
-15.996  -6.010 -70.623 
 15.180 -10.039 -68.583 
 -8.968  13.288 -66.546 
 14.737  12.942 -67.871 
  4.104  10.454 -74.279 
 -1.720  10.404 -65.825 
-14.177 -12.012 -72.677 
 -7.599   0.491 -63.041 
  1.545   8.180 -68.986 
  9.380  -3.063 -70.002 
  3.149   5.585 -75.205 
 14.679  -4.640 -62.810 
  7.514  13.093 -65.766 
 -2.281   8.693 -76.665 
  3.691  -4.904 -60.552 
 12.346  10.668 -67.454 
-11.458  -5.499 -72.228 
  0.663   2.714 -76.096 
 -3.766   4.270 -61.861 
 -7.230  10.858 -74.912 
  8.364 -12.788 -62.224 
 -5.134   4.265 -64.060 
  3.018   8.279 -58.675 
  6.014   3.623 -63.104 
 15.159 -12.467 -73.557 
-11.104   9.749 -70.073 
 -9.062 -10.427 -75.946 
 13.995   0.277 -68.254 
 14.105  -5.069 -63.127 
  9.954  -5.992 -67.995 
-13.679   1.023 -77.172 
  7.393   5.454 -63.582 
 -8.957  -4.114 -62.363 
  4.093   1.965 -71.049 
  6.227  -2.628 -71.035 
 12.020   8.317 -71.922 
  6.986  10.354 -61.895 
  7.248 -11.653 -64.956 
  8.082  11.741 -64.412 
  7.088  -8.092 -71.628 
 15.668 -10.945 -74.626 
-12.979  11.250 -67.965 
 -2.452   6.435 -60.451 
 -4.792   3.196 -76.566 
  1.207   2.929 -61.735 
-14.370 -10.032 -73.062 
  0.692  -2.934 -68.405 
-15.403   3.026 -71.250 
 13.201   0.460 -63.298 
 -8.753   4.156 -60.258 
  4.031  -7.418 -60.460 
 -9.390  -9.065 -73.567 
 -3.909  10.610 -72.349 
 -0.393  -0.152 -72.680 
 11.072  -5.174 -67.096 
 -1.374  -1.081 -63.995 
 -9.302  -3.324 -73.006 
  9.108   2.253 -59.924 
  8.652  12.474 -68.659 
 11.689  -0.614 -62.790 
 13.225  -7.736 -65.820 
 -4.502   4.991 -77.507 
-12.144  -5.758 -72.121 
 10.067  -1.229 -66.162 
 -5.897  12.646 -63.650 
  0.121  -1.823 -74.396 
 -6.750  -1.664 -59.335 
-13.245  -0.924 -63.648 
  5.732  -8.195 -71.733 
 14.579  -9.540 -64.915 
 16.810  -1.353 -67.037 
  8.413  -3.825 -60.607 
 12.137  -6.539 -65.132 
-13.863   5.133 -76.975 
 10.409   6.950 -66.921 
 -1.410  -0.680 -64.689 
 -0.857  -1.786 -67.397 
 11.810 -11.736 -70.169 
 11.969   2.865 -61.370 
  7.490  -0.573 -60.606 
 10.079  -8.026 -64.343 
-12.863   6.948 -72.067 
 -4.783  10.494 -74.010 
 -5.395  11.262 -68.243 
  4.189   8.774 -74.206 
  1.959  -8.692 -70.113 
  3.447  -8.745 -73.632 
  9.636 -12.340 -71.180 
 -3.200  12.371 -72.794 
  5.073   5.633 -61.724 
 13.015   3.607 -70.892 
 12.863  -6.969 -63.636 
 16.825  -5.550 -68.425 
  0.901  -6.242 -61.321 
  0.479   3.542 -75.934 
 -0.121  -5.668 -67.630 
  1.778  -1.335 -64.166 
  3.969   4.777 -57.459 
-12.856   5.197 -78.231 
 14.870   6.997 -73.904 
 12.636   4.862 -70.235 
  1.519   0.439 -64.162 
 14.761  10.118 -69.615 
  7.486   2.793 -65.104 
  2.447  -9.780 -72.353 
  3.742   2.167 -73.093 
 15.950  10.254 -64.921 
 13.703   6.825 -70.103 
 -3.814   0.564 -67.091 
 -6.323  -7.732 -67.176 
-10.709   8.221 -71.941 
  6.208   7.805 -65.660 
 14.188  -1.487 -65.820 
  3.593  -0.297 -60.435 
 -7.382  11.645 -69.303 
-14.261  -3.083 -65.852 
 18.093  12.109 -73.114 
-10.650  11.963 -68.059 
  6.625  -6.699 -73.361 
 -7.295   7.266 -68.148 
  0.071 -12.166 -63.924 
  3.025 -12.005 -64.432 
 12.552  -0.942 -75.916 
 -8.529  -6.682 -67.209 
 -2.688   3.078 -62.016 
 -2.797   1.995 -62.409 
 10.830   5.455 -67.052 
  7.277   6.693 -71.522 
 10.280   8.556 -65.064 
  5.399  -1.821 -72.418 
 12.428  -3.357 -71.887 
 -6.346 -12.313 -71.589 
 -1.838 -12.338 -64.632 
 18.935 -11.316 -71.069 
-10.432  -7.084 -76.750 
 -5.524   0.719 -63.498 
 -9.806  11.819 -59.864 
 17.160 -11.752 -73.476 
  0.526   7.237 -76.192 
 -2.524  10.506 -69.708 
  2.800   7.085 -68.499 
  1.341   3.479 -70.878 
 -9.154   4.369 -65.482 
 -0.463  -7.243 -64.719 
 -1.051   8.009 -74.256 
 12.304  -1.172 -75.267 

 VERTICES 514 1028 
1 0 
1 1 
1 2 
1 3 
1 4 
1 5 
1 6 
1 7 
1 8 
1 9 
1 10 
1 11 
1 12 
1 13 
1 14 
1 15 
1 16 
1 17 
1 18 
1 19 
1 20 
1 21 
1 22 
1 23 
1 24 
1 25 
1 26 
1 27 
1 28 
1 29 
1 30 
1 31 
1 32 
1 33 
1 34 
1 35 
1 36 
1 37 
1 38 
1 39 
1 40 
1 41 
1 42 
1 43 
1 44 
1 45 
1 46 
1 47 
1 48 
1 49 
1 50 
1 51 
1 52 
1 53 
1 54 
1 55 
1 56 
1 57 
1 58 
1 59 
1 60 
1 61 
1 62 
1 63 
1 64 
1 65 
1 66 
1 67 
1 68 
1 69 
1 70 
1 71 
1 72 
1 73 
1 74 
1 75 
1 76 
1 77 
1 78 
1 79 
1 80 
1 81 
1 82 
1 83 
1 84 
1 85 
1 86 
1 87 
1 88 
1 89 
1 90 
1 91 
1 92 
1 93 
1 94 
1 95 
1 96 
1 97 
1 98 
1 99 
1 100 
1 101 
1 102 
1 103 
1 104 
1 105 
1 106 
1 107 
1 108 
1 109 
1 110 
1 111 
1 112 
1 113 
1 114 
1 115 
1 116 
1 117 
1 118 
1 119 
1 120 
1 121 
1 122 
1 123 
1 124 
1 125 
1 126 
1 127 
1 128 
1 129 
1 130 
1 131 
1 132 
1 133 
1 134 
1 135 
1 136 
1 137 
1 138 
1 139 
1 140 
1 141 
1 142 
1 143 
1 144 
1 145 
1 146 
1 147 
1 148 
1 149 
1 150 
1 151 
1 152 
1 153 
1 154 
1 155 
1 156 
1 157 
1 158 
1 159 
1 160 
1 161 
1 162 
1 163 
1 164 
1 165 
1 166 
1 167 
1 168 
1 169 
1 170 
1 171 
1 172 
1 173 
1 174 
1 175 
1 176 
1 177 
1 178 
1 179 
1 180 
1 181 
1 182 
1 183 
1 184 
1 185 
1 186 
1 187 
1 188 
1 189 
1 190 
1 191 
1 192 
1 193 
1 194 
1 195 
1 196 
1 197 
1 198 
1 199 
1 200 
1 201 
1 202 
1 203 
1 204 
1 205 
1 206 
1 207 
1 208 
1 209 
1 210 
1 211 
1 212 
1 213 
1 214 
1 215 
1 216 
1 217 
1 218 
1 219 
1 220 
1 221 
1 222 
1 223 
1 224 
1 225 
1 226 
1 227 
1 228 
1 229 
1 230 
1 231 
1 232 
1 233 
1 234 
1 235 
1 236 
1 237 
1 238 
1 239 
1 240 
1 241 
1 242 
1 243 
1 244 
1 245 
1 246 
1 247 
1 248 
1 249 
1 250 
1 251 
1 252 
1 253 
1 254 
1 255 
1 256 
1 257 
1 258 
1 259 
1 260 
1 261 
1 262 
1 263 
1 264 
1 265 
1 266 
1 267 
1 268 
1 269 
1 270 
1 271 
1 272 
1 273 
1 274 
1 275 
1 276 
1 277 
1 278 
1 279 
1 280 
1 281 
1 282 
1 283 
1 284 
1 285 
1 286 
1 287 
1 288 
1 289 
1 290 
1 291 
1 292 
1 293 
1 294 
1 295 
1 296 
1 297 
1 298 
1 299 
1 300 
1 301 
1 302 
1 303 
1 304 
1 305 
1 306 
1 307 
1 308 
1 309 
1 310 
1 311 
1 312 
1 313 
1 314 
1 315 
1 316 
1 317 
1 318 
1 319 
1 320 
1 321 
1 322 
1 323 
1 324 
1 325 
1 326 
1 327 
1 328 
1 329 
1 330 
1 331 
1 332 
1 333 
1 334 
1 335 
1 336 
1 337 
1 338 
1 339 
1 340 
1 341 
1 342 
1 343 
1 344 
1 345 
1 346 
1 347 
1 348 
1 349 
1 350 
1 351 
1 352 
1 353 
1 354 
1 355 
1 356 
1 357 
1 358 
1 359 
1 360 
1 361 
1 362 
1 363 
1 364 
1 365 
1 366 
1 367 
1 368 
1 369 
1 370 
1 371 
1 372 
1 373 
1 374 
1 375 
1 376 
1 377 
1 378 
1 379 
1 380 
1 381 
1 382 
1 383 
1 384 
1 385 
1 386 
1 387 
1 388 
1 389 
1 390 
1 391 
1 392 
1 393 
1 394 
1 395 
1 396 
1 397 
1 398 
1 399 
1 400 
1 401 
1 402 
1 403 
1 404 
1 405 
1 406 
1 407 
1 408 
1 409 
1 410 
1 411 
1 412 
1 413 
1 414 
1 415 
1 416 
1 417 
1 418 
1 419 
1 420 
1 421 
1 422 
1 423 
1 424 
1 425 
1 426 
1 427 
1 428 
1 429 
1 430 
1 431 
1 432 
1 433 
1 434 
1 435 
1 436 
1 437 
1 438 
1 439 
1 440 
1 441 
1 442 
1 443 
1 444 
1 445 
1 446 
1 447 
1 448 
1 449 
1 450 
1 451 
1 452 
1 453 
1 454 
1 455 
1 456 
1 457 
1 458 
1 459 
1 460 
1 461 
1 462 
1 463 
1 464 
1 465 
1 466 
1 467 
1 468 
1 469 
1 470 
1 471 
1 472 
1 473 
1 474 
1 475 
1 476 
1 477 
1 478 
1 479 
1 480 
1 481 
1 482 
1 483 
1 484 
1 485 
1 486 
1 487 
1 488 
1 489 
1 490 
1 491 
1 492 
1 493 
1 494 
1 495 
1 496 
1 497 
1 498 
1 499 
1 500 
1 501 
1 502 
1 503 
1 504 
1 505 
1 506 
1 507 
1 508 
1 509 
1 510 
1 511 
1 512 
1 513 
POINT_DATA 514 
SCALARS MeanU double 1 
LOOKUP_TABLE default
0.10770 
0.05937 
0.14088 
0.20691 
0.15166 
0.13696 
0.12367 
0.10431 
0.12445 
0.11902 
0.10947 
0.12800 
0.09413 
0.14578 
0.08769 
0.10280 
0.08232 
0.09925 
0.11703 
0.17865 
0.12528 
0.09819 
0.11209 
0.14920 
0.17739 
0.14845 
0.13810 
0.16718 
0.03507 
0.14130 
0.13733 
0.13711 
0.20845 
0.09867 
0.19505 
0.04428 
0.12197 
0.09772 
0.14916 
0.17615 
0.22536 
0.16585 
0.12494 
0.16078 
0.19295 
0.12635 
0.12612 
0.10987 
0.14989 
0.11949 
0.16794 
0.08486 
0.11620 
0.14294 
0.12656 
0.10134 
0.12612 
0.15067 
0.13551 
0.10988 
0.10549 
0.05469 
0.11451 
0.08877 
0.04502 
0.14782 
0.14689 
0.20021 
0.20382 
0.16352 
0.19822 
0.12631 
0.11551 
0.12861 
0.17632 
0.19121 
0.13024 
0.14918 
0.08373 
0.09514 
0.20917 
0.21657 
0.13910 
0.11649 
0.10397 
0.08117 
0.13149 
0.11240 
0.16979 
0.11957 
0.09969 
0.21674 
0.05307 
0.17929 
0.11327 
0.15568 
0.14961 
0.11902 
0.06500 
0.13086 
0.18174 
0.08296 
0.17603 
0.13003 
0.14585 
0.09055 
0.06330 
0.10397 
0.17846 
0.15219 
0.08029 
0.12793 
0.17983 
0.14853 
0.12033 
0.14660 
0.12342 
0.10792 
0.03700 
0.13691 
0.13148 
0.11712 
0.05484 
0.06057 
0.11389 
0.13138 
0.15640 
0.07395 
0.20569 
0.06132 
0.08960 
0.07809 
0.15810 
0.11291 
0.09134 
0.12812 
0.16927 
0.12294 
0.13319 
0.15270 
0.15172 
0.20710 
0.10331 
0.10348 
0.11986 
0.13086 
0.17089 
0.22710 
0.13727 
0.12084 
0.27102 
0.11460 
0.13402 
0.04962 
0.07282 
0.20323 
0.21671 
0.17040 
0.09614 
0.14540 
0.07763 
0.15939 
0.16232 
0.10772 
0.12738 
0.14880 
0.07339 
0.16710 
0.17227 
0.12838 
0.11761 
0.22657 
0.05558 
0.14434 
0.04863 
0.15420 
0.20460 
0.16498 
0.16662 
0.10081 
0.17715 
0.10183 
0.07942 
0.17470 
0.08056 
0.07565 
0.15650 
0.12236 
0.17713 
0.22631 
0.10986 
0.06670 
0.08036 
0.16062 
0.11772 
0.23064 
0.13059 
0.09504 
0.08520 
0.07273 
0.11513 
0.18130 
0.13379 
0.07318 
0.16331 
0.09624 
0.12987 
0.11362 
0.16072 
0.16410 
0.11084 
0.22318 
0.06565 
0.11410 
0.11622 
0.16171 
0.20519 
0.17042 
0.16871 
0.06154 
0.09194 
0.13887 
0.17306 
0.12711 
0.08436 
0.13667 
0.08114 
0.12174 
0.11452 
0.13739 
0.10796 
0.15085 
0.07007 
0.01178 
0.16531 
0.09694 
0.11063 
0.24381 
0.18877 
0.19444 
0.10279 
0.13831 
0.15127 
0.15194 
0.03486 
0.12731 
0.17570 
0.21951 
0.13585 
0.16876 
0.09483 
0.13863 
0.10737 
0.14239 
0.17902 
0.09192 
0.16357 
0.18001 
0.13470 
0.20042 
0.11340 
0.11887 
0.07138 
0.03032 
0.16727 
0.13765 
0.04535 
0.09550 
0.17666 
0.16620 
0.08320 
0.10839 
0.13939 
0.09759 
0.16159 
0.08754 
0.14543 
0.15252 
0.13111 
0.12542 
0.18412 
0.09540 
0.13978 
0.05666 
0.19869 
0.04911 
0.04581 
0.09048 
0.12623 
0.09032 
0.12151 
0.08554 
0.06938 
0.18866 
0.16535 
0.19456 
0.05982 
0.11387 
0.14390 
0.17168 
0.14092 
0.07910 
0.17838 
0.12611 
0.11855 
0.09278 
0.08498 
0.21600 
0.11617 
0.15215 
0.11968 
0.12999 
0.11837 
0.13438 
0.11210 
0.13061 
0.08665 
0.07795 
0.13411 
0.07142 
0.11890 
0.10235 
0.22237 
0.20610 
0.12080 
0.09629 
0.14773 
0.12411 
0.16433 
0.09220 
0.17339 
0.12059 
0.09443 
0.18194 
0.13319 
0.15663 
0.17862 
0.05177 
0.09302 
0.21632 
0.19466 
0.07489 
0.13126 
0.10855 
0.23598 
0.14858 
0.06924 
0.07586 
0.11887 
0.08776 
0.07140 
0.09901 
0.18655 
0.10740 
0.18808 
0.16981 
0.14200 
0.14430 
0.08082 
0.07284 
0.16152 
0.16794 
0.19411 
0.11687 
0.14863 
0.11574 
0.24805 
0.14155 
0.12361 
0.11936 
0.05390 
0.08024 
0.08735 
0.09652 
0.17527 
0.08330 
0.09312 
0.05148 
0.13405 
0.11968 
0.12990 
0.06512 
0.12922 
0.09480 
0.13959 
0.08020 
0.10861 
0.06777 
0.20007 
0.12841 
0.14335 
0.12547 
0.05987 
0.10248 
0.15168 
0.04328 
0.12144 
0.08521 
0.10429 
0.11637 
0.29435 
0.18707 
0.23874 
0.09838 
0.09784 
0.10448 
0.18077 
0.19927 
0.03670 
0.09133 
0.07924 
0.10448 
0.11385 
0.10255 
0.19723 
0.08965 
0.20620 
0.06785 
0.14837 
0.10482 
0.06962 
0.18952 
0.07633 
0.19918 
0.13517 
0.15245 
0.07369 
0.12525 
0.10545 
0.09557 
0.14051 
0.12384 
0.20442 
0.13911 
0.09676 
0.26439 
0.16454 
0.18468 
0.04941 
0.16478 
0.16451 
0.11494 
0.07787 
0.21438 
0.17769 
0.07789 
0.28014 
0.16188 
0.13466 
0.05833 
0.04847 
0.10372 
0.14589 
0.20542 
0.22759 
0.10417 
0.07013 
0.10508 
0.13804 
0.16359 
0.07247 
0.26349 
0.09794 
0.14307 
0.15539 
0.13889 
0.05227 
0.15330 
0.14634 
0.12763 
0.15336 
0.17684 
0.25637 
0.14143 
0.20125 
0.12442 
0.14686 
0.22367 
0.05953 
0.07428 
0.07638 
0.13713 
0.07800 
0.21699 
0.16384 
0.06427 
0.17081 
0.07498 
0.13841 
0.09029 
0.09334 
0.18452 
0.14427 
0.07973 
0.11252 
0.11100 
0.08540 
0.22785 
0.09228 
0.09315 
0.10738 
0.10386 
0.09253 
0.11944 
0.12240 
0.10827 
0.08919 
0.05141 
0.09232 
0.12721 
0.14877 
0.14686 
0.12793 
0.16300 

 VECTORS Umean float 
0.01750 0.10600 0.00750 
0.00300 0.05400 -0.02450 
0.07550 0.10150 -0.06200 
0.10700 0.13250 -0.11750 
0.04100 0.14150 0.03600 
0.04600 0.12900 0.00150 
0.06300 0.09800 -0.04150 
-0.00800 0.08350 0.06200 
0.01800 0.12300 0.00600 
0.02450 0.10700 0.04600 
0.03450 0.09900 0.03150 
-0.00350 0.11050 -0.06450 
-0.02100 0.08600 -0.03200 
0.07200 0.09750 -0.08100 
0.00800 0.07600 -0.04300 
0.05300 0.08400 -0.02650 
0.03000 0.07600 0.01000 
-0.05000 0.08450 -0.01450 
0.02400 0.11450 -0.00300 
0.08050 0.11050 -0.11500 
0.01300 0.12450 0.00500 
-0.03350 0.03350 -0.08600 
0.01150 0.10500 -0.03750 
0.07650 0.11750 -0.05100 
0.02700 0.15250 -0.08650 
0.06000 0.07750 -0.11150 
0.02050 0.13600 -0.01250 
-0.05750 0.11100 -0.11100 
0.02500 0.02200 -0.01100 
0.01150 0.10350 -0.09550 
0.06400 0.12150 -0.00000 
0.05000 0.12700 -0.01300 
0.15300 0.14150 0.00450 
0.02300 0.09250 0.02550 
0.10950 0.15800 -0.03300 
-0.03200 0.03050 0.00250 
0.06450 0.06050 -0.08400 
0.03700 0.08950 0.01300 
0.08600 0.10550 -0.06100 
0.09900 0.07650 -0.12400 
0.07300 0.06200 -0.20400 
0.07000 0.14950 -0.01600 
0.01250 0.12100 0.02850 
0.08250 0.12200 -0.06450 
0.11050 0.10700 -0.11650 
0.04600 0.11750 -0.00650 
0.07750 0.09950 -0.00050 
-0.03350 0.01150 -0.10400 
0.04400 0.11150 -0.09000 
-0.02350 0.11400 -0.02700 
0.05050 0.11200 0.11450 
0.04750 0.06450 -0.02800 
0.06750 0.08150 -0.04800 
0.03550 0.13550 0.02850 
0.03750 0.10550 -0.05900 
0.03650 0.09350 0.01400 
0.01250 0.09500 -0.08200 
0.00300 0.14550 0.03900 
0.07200 0.09250 -0.06800 
0.05650 0.09100 0.02450 
0.08950 0.05350 0.01600 
-0.01500 0.04800 0.02150 
0.07000 0.07950 -0.04350 
0.03400 0.08200 0.00050 
0.00550 0.03400 0.02900 
0.10250 0.08800 -0.06000 
0.09700 0.06650 -0.08800 
0.07550 0.17950 -0.04650 
0.03050 0.19300 -0.05800 
0.07100 0.07200 -0.12850 
0.09800 0.09150 -0.14600 
0.04150 0.08850 -0.08000 
0.00900 0.10600 0.04500 
0.08050 0.09700 -0.02550 
0.12050 0.12700 0.02100 
0.04350 0.18400 -0.02850 
0.06300 0.06300 -0.09500 
0.03900 0.11200 -0.09050 
0.05000 0.05850 -0.03300 
0.05500 0.03250 -0.07050 
0.05450 0.10250 -0.17400 
-0.00450 0.21650 -0.00300 
-0.00750 0.08350 -0.11100 
0.06800 0.04250 -0.08450 
0.03450 -0.09650 -0.01750 
0.04050 0.07000 0.00700 
0.07500 0.03250 -0.10300 
-0.03700 0.10350 0.02350 
-0.05350 0.14700 -0.06600 
0.06850 0.05800 -0.07900 
-0.01400 0.08450 -0.05100 
0.07000 0.07350 -0.19150 
0.01550 0.04550 0.02250 
0.08350 0.15300 0.04200 
-0.03650 0.07900 0.07250 
0.09400 0.12300 0.01650 
0.02200 0.13550 -0.05950 
0.03000 0.10200 -0.05350 
0.04850 0.04000 0.01650 
0.03700 0.08750 0.09000 
0.04900 0.12450 0.12300 
-0.00950 0.05650 -0.06000 
0.04800 0.08750 -0.14500 
0.07650 0.09250 -0.05000 
0.07700 0.09150 -0.08350 
0.03750 0.04350 -0.07000 
0.04650 0.00900 0.04200 
0.07200 0.04500 -0.06000 
0.06500 0.07850 -0.14650 
0.07300 0.12300 0.05200 
0.01000 0.07400 -0.02950 
0.00300 0.12750 -0.01000 
-0.01900 0.16600 0.06650 
0.10450 0.09500 -0.04600 
0.05500 0.10550 -0.01800 
0.02700 0.12050 -0.07900 
0.10100 0.06600 -0.02600 
-0.01500 0.03900 -0.09950 
0.01200 0.03500 -0.00050 
0.06150 0.03400 -0.11750 
0.07900 0.06250 -0.08450 
0.05600 0.09250 0.04500 
0.01250 0.03700 -0.03850 
0.03900 0.03150 0.03400 
0.02700 0.10650 -0.03000 
0.05850 0.02700 -0.11450 
0.05500 0.13400 -0.05900 
0.05050 0.05350 -0.00750 
0.03200 0.19200 -0.06650 
0.02700 0.04250 -0.03500 
-0.08200 0.03600 -0.00300 
0.06600 0.04150 0.00450 
0.06800 0.12950 -0.06000 
0.03100 0.07500 -0.07850 
0.07200 0.05150 -0.02250 
0.05700 0.10150 0.05350 
0.05150 0.11200 -0.11600 
0.01750 0.10500 0.06150 
0.03700 0.11900 -0.04700 
0.05150 0.10700 -0.09600 
0.06800 0.07500 -0.11300 
0.04050 0.13300 -0.15350 
0.08350 -0.03800 0.04750 
0.06600 0.07600 -0.02400 
-0.02600 0.09450 -0.06900 
0.03700 0.12550 -0.00250 
0.08150 0.11950 -0.09100 
-0.00150 0.16550 -0.15550 
0.10400 0.07400 -0.05050 
0.02650 0.10700 -0.04950 
0.17550 0.10300 -0.17900 
0.06900 0.07350 -0.05450 
-0.00250 0.08450 -0.10400 
-0.01900 0.01100 -0.04450 
0.04250 0.00400 -0.05900 
0.10050 -0.02000 -0.17550 
-0.00100 0.13750 -0.16750 
0.07650 0.11350 -0.10150 
0.05550 0.07850 -0.00100 
0.06400 0.13000 -0.01200 
-0.01850 0.07000 -0.02800 
0.04200 0.14300 -0.05650 
0.07900 0.10200 -0.09850 
0.01100 0.04100 -0.09900 
0.01400 0.10200 0.07500 
-0.01900 0.14300 -0.03650 
-0.00050 0.03500 -0.06450 
0.00800 0.16100 -0.04400 
0.05400 0.10250 -0.12750 
0.03950 0.07800 0.09400 
0.02250 0.10900 -0.03800 
0.10000 0.20000 -0.03650 
-0.03750 0.04100 0.00150 
0.06700 -0.01850 -0.12650 
0.01600 0.02650 0.03750 
0.07750 0.13000 0.02950 
0.08400 0.08800 -0.16450 
0.06300 0.11150 -0.10400 
-0.01650 0.13300 -0.09900 
-0.01050 0.09150 0.04100 
-0.02850 0.13300 -0.11350 
0.03150 0.09550 -0.01600 
-0.03350 0.03300 0.06400 
0.00900 0.17050 -0.03700 
0.00350 0.05250 -0.06100 
0.01600 0.05050 -0.05400 
0.07450 0.05650 -0.12550 
0.03150 0.00750 -0.11800 
0.03000 0.16300 -0.06250 
0.11900 0.15400 -0.11550 
-0.05500 0.09500 -0.00450 
-0.02850 0.05800 -0.01650 
0.06350 0.04800 0.01100 
-0.04700 0.15300 0.01350 
0.09250 0.06700 -0.02850 
0.04500 0.18000 -0.13700 
-0.01350 0.12950 0.01000 
0.01700 0.09350 -0.00150 
-0.00300 0.08300 0.01900 
0.02700 0.06350 -0.02300 
0.06650 0.04850 -0.08050 
0.02650 0.17800 0.02200 
0.07000 0.07000 -0.09000 
-0.03250 0.05750 -0.03150 
0.03900 0.11750 -0.10650 
0.06600 0.02200 -0.06650 
0.00900 0.12750 -0.02300 
0.06500 0.07800 -0.05100 
0.08900 0.05500 -0.12200 
0.04500 0.14900 0.05200 
-0.03850 0.10200 -0.02000 
0.11200 0.07350 -0.17850 
0.04650 0.04350 0.01600 
0.10950 -0.00200 0.03200 
0.01500 0.09650 -0.06300 
0.07150 0.09900 -0.10600 
0.11650 0.09300 -0.14100 
0.00650 0.16200 -0.05250 
0.03900 0.14600 -0.07500 
0.01750 0.03050 -0.05050 
0.06800 0.05950 -0.01700 
0.08450 0.08750 -0.06700 
0.04300 0.16350 -0.03700 
0.04000 0.10100 -0.06600 
0.01050 0.04950 -0.06750 
0.07400 0.09800 -0.06000 
0.06600 -0.02800 -0.03800 
0.07700 0.00750 -0.09400 
0.09650 -0.01950 -0.05850 
0.11200 0.07350 0.03050 
0.04900 0.05700 -0.07750 
0.02250 0.14500 0.03500 
-0.00700 0.00550 -0.06950 
0.00650 0.00250 0.00950 
0.00500 0.10200 -0.13000 
0.04550 0.06600 -0.05450 
0.05950 0.08250 0.04350 
0.02850 0.13200 -0.20300 
0.05550 0.16650 -0.06950 
0.06950 0.07250 -0.16650 
0.05850 0.05850 -0.06100 
0.09100 0.01850 -0.10250 
0.07500 0.08400 -0.10100 
0.01450 0.14900 -0.02600 
0.01350 0.00850 -0.03100 
0.09900 0.02000 -0.07750 
0.01400 0.16800 0.04950 
0.04350 0.19450 -0.09200 
0.09700 0.06700 -0.06750 
0.09850 0.13650 -0.01200 
0.08000 0.03150 -0.04000 
0.09450 0.08250 -0.05900 
0.03400 0.01650 -0.10050 
0.06800 0.06400 -0.10750 
0.04900 -0.13450 -0.10750 
-0.03150 0.08000 -0.03250 
0.08000 0.12700 0.06500 
0.07350 0.09650 -0.13300 
0.11550 0.01950 -0.06650 
0.11300 0.07000 -0.15000 
0.07300 0.08500 0.01750 
0.00800 0.11200 -0.03900 
-0.00500 0.06950 -0.01550 
0.01300 0.02550 -0.01000 
0.08550 0.03050 -0.14050 
0.07100 0.10900 -0.04500 
-0.00500 0.04250 0.01500 
0.03800 0.08250 0.02950 
0.06850 0.13950 -0.08400 
0.10600 0.10150 -0.07800 
-0.00500 -0.08300 0.00300 
0.03200 -0.10050 -0.02500 
-0.03250 0.04600 -0.12750 
0.05000 0.08100 0.02150 
0.07150 0.13050 -0.06300 
0.04250 0.07650 -0.00200 
-0.03900 0.13350 -0.04250 
0.10400 0.05850 -0.09500 
0.08000 0.09500 0.04200 
-0.01900 0.03800 -0.11800 
0.09950 0.10650 -0.11250 
-0.00600 0.07700 -0.05600 
0.01500 0.09650 -0.10000 
-0.00250 0.05650 -0.00350 
0.09250 0.11950 -0.12900 
-0.00300 0.04650 0.01550 
-0.04300 -0.01550 -0.00300 
0.03400 0.07750 -0.03200 
0.02600 0.12350 0.00250 
0.04250 0.07600 0.02400 
0.11800 0.02000 -0.02100 
0.04450 0.06900 -0.02400 
0.03650 0.05900 0.00050 
0.09300 0.07100 -0.14800 
0.06650 0.14500 -0.04350 
0.07600 0.10850 -0.14250 
0.04000 0.04400 0.00650 
0.02150 0.10700 0.03250 
-0.02400 0.13750 -0.03500 
0.06500 0.03500 -0.15500 
0.07800 0.10900 -0.04350 
0.03050 0.06200 -0.03850 
0.04600 0.11200 -0.13100 
-0.02250 0.09650 -0.07800 
0.07400 0.08150 -0.04400 
0.07150 0.03950 0.04400 
0.07650 0.02300 -0.02900 
0.16250 0.08100 -0.11700 
0.03300 0.11050 0.01400 
0.01750 0.13850 -0.06050 
0.03900 0.10950 -0.02850 
0.03750 0.12250 0.02200 
0.03350 0.11300 0.01100 
0.04900 0.10600 -0.06650 
0.09050 0.05450 0.03750 
-0.00800 0.12500 0.03700 
0.06400 0.05800 0.00700 
-0.02950 -0.06650 -0.02800 
0.05000 0.11850 -0.03800 
0.05300 0.02000 -0.04350 
0.07000 0.09600 -0.00450 
0.03350 0.03900 0.08850 
0.10200 0.05250 -0.19050 
0.09800 0.10750 -0.14600 
0.01500 0.11150 -0.04400 
0.09400 0.00600 -0.02000 
0.06850 0.06250 -0.11500 
-0.02250 0.07600 -0.09550 
0.02250 0.15700 -0.04300 
0.09200 -0.00450 -0.00400 
0.08550 0.13200 -0.07300 
0.06350 0.10250 -0.00150 
-0.01700 0.09250 0.00850 
0.11600 0.04850 -0.13150 
-0.00700 0.13300 0.00050 
-0.01700 0.15100 -0.03800 
0.04000 0.14250 -0.10000 
0.01100 -0.03450 0.03700 
-0.00500 0.00850 -0.09250 