# vtk DataFile Version 2.0 
Xm, Ym, Zm, Uvecs, timestep 10080 
ASCII 
 
DATASET POLYDATA POINTS 511 float 
  1.968   4.105 -70.365 
  8.982   1.515 -70.393 
  9.459  -1.000 -71.212 
 -7.635  -2.311 -71.031 
  6.143   5.543 -71.614 
  5.075  -1.566 -68.923 
  3.571   4.800 -70.733 
 -0.249   4.364 -67.427 
  4.607  13.166 -65.480 
  2.781   7.142 -70.215 
 -1.675   6.010 -71.873 
  9.366   2.039 -70.672 
 -1.732   1.174 -69.945 
  6.010   4.972 -71.772 
 -8.392   3.051 -73.861 
 -1.824   1.181 -75.136 
  1.901   6.414 -70.640 
  4.860   3.315 -70.795 
  4.390   5.564 -67.861 
  6.888   1.139 -68.227 
  5.762   8.881 -71.365 
  0.506   6.576 -66.394 
 -7.997  -7.047 -70.767 
-10.864   1.625 -73.283 
  7.586   2.060 -68.384 
  2.420  -3.100 -74.083 
 10.095   2.695 -72.143 
 -6.527   0.966 -66.940 
 -4.577   7.623 -73.007 
  4.457   4.385 -68.400 
 -2.865  11.406 -71.424 
  7.893  10.756 -67.907 
 -9.948  -4.047 -70.127 
-10.546  -0.773 -75.831 
 -2.048  10.698 -70.547 
 10.327   5.196 -66.600 
 -3.090   6.220 -69.688 
 -2.484  -2.505 -73.926 
  0.685 -10.805 -69.834 
  0.074   0.420 -65.153 
  8.414  -6.460 -70.939 
 -1.333   4.927 -64.551 
  3.413   7.047 -65.795 
 -2.449   5.992 -74.495 
  7.064   9.089 -64.027 
 -1.958 -11.585 -70.930 
  5.248  -7.021 -67.912 
 -4.719  12.413 -73.086 
 -7.539   4.922 -67.386 
-15.454   5.995 -70.608 
 -2.758   0.097 -69.328 
-15.589   7.748 -74.452 
  1.907   2.003 -66.019 
  5.724  -1.817 -71.861 
-14.100   0.822 -69.552 
  6.722   6.634 -66.682 
-14.279   8.998 -72.413 
  1.149  11.999 -73.903 
 -6.702  11.905 -73.495 
 -8.235   9.351 -64.231 
 -4.022   2.724 -73.722 
 -0.623  -1.085 -70.756 
 -1.418  -5.771 -68.871 
-10.631  -2.928 -69.786 
  2.692   5.006 -67.990 
  2.258   7.243 -61.739 
  4.890 -12.101 -68.691 
 -2.314  10.442 -67.996 
  8.184  -4.870 -68.520 
 -2.861   7.217 -67.334 
 13.813   4.544 -65.875 
 -2.458   6.181 -66.952 
 -8.739   7.296 -66.944 
 -0.074   9.245 -73.712 
 -7.059   2.689 -65.146 
 -4.733   1.869 -61.868 
 -5.024  -1.692 -67.858 
 -1.460  -3.222 -73.196 
 -2.272  -2.311 -70.115 
 -2.527   5.376 -63.490 
 -7.473  -4.755 -67.746 
 -9.729  10.488 -65.762 
 -2.197  -0.230 -64.713 
  8.942  -0.616 -71.739 
 -3.970  10.271 -63.383 
  2.782 -11.686 -69.013 
 -7.851   0.788 -65.956 
 -9.272  12.023 -68.724 
 11.041  -2.681 -72.929 
  5.651 -10.621 -66.829 
 -1.767   0.955 -68.419 
  1.342  -8.206 -64.910 
-10.029  -3.548 -72.322 
  9.701  -3.415 -67.066 
 12.125   6.815 -68.014 
-10.904   0.710 -63.666 
-15.210  -1.072 -73.638 
 -9.962   3.538 -71.966 
 -4.758   3.241 -62.965 
 -3.740   0.286 -71.662 
 -5.544  -7.945 -71.469 
 -6.720   1.013 -63.477 
 -7.165  -0.657 -64.423 
 -7.706  11.035 -71.040 
 -5.990   2.505 -62.081 
  5.544 -11.439 -71.984 
 -6.172  -0.971 -62.385 
 -5.653   0.665 -67.665 
  9.120   7.781 -68.073 
  5.085   0.900 -67.736 
 -0.643  10.771 -63.909 
 12.148  -1.812 -69.159 
 -7.536   8.287 -67.172 
  2.838  12.601 -66.756 
  5.439  -4.239 -66.981 
 -9.093  -7.849 -67.838 
 -0.694   2.848 -75.071 
  2.827  -9.242 -63.363 
  9.830 -11.598 -68.330 
 -0.762  -5.096 -63.976 
  6.503  -3.244 -66.365 
  9.601  -0.630 -67.261 
  7.785   7.288 -73.000 
 10.724  -1.370 -65.498 
 -1.937  -7.179 -70.334 
 -8.482   1.180 -62.238 
  1.835  -8.918 -68.905 
  0.009  -5.886 -64.695 
 -3.802  -3.503 -61.791 
  0.521  -4.960 -63.883 
  1.838 -11.671 -68.290 
 -4.061   7.535 -71.429 
  6.276   8.187 -66.639 
-13.876   0.187 -67.311 
 13.348   3.067 -68.913 
-11.749  -6.909 -68.785 
-10.256  -3.016 -63.090 
 11.114  -3.434 -65.248 
 -3.248 -12.178 -67.264 
  1.021   6.043 -73.101 
 -5.087   9.986 -64.064 
 -0.933  -3.554 -66.968 
 -8.451  -0.318 -66.341 
  2.681 -12.738 -69.873 
 -0.118  -8.977 -65.973 
  0.956  -4.013 -64.707 
 12.310   4.534 -73.927 
 -5.183  -1.649 -74.599 
  6.469  -6.313 -67.694 
  6.864  -8.581 -68.996 
 14.980  -0.015 -71.700 
 -6.311  -8.066 -75.004 
 -4.740   7.639 -69.969 
  6.490  -6.412 -64.549 
 -7.749  -9.909 -64.159 
 -6.249  -6.563 -75.664 
  5.614   0.308 -62.972 
-10.692   7.415 -65.953 
  6.033   8.643 -63.468 
-11.830  10.409 -71.039 
 11.057  -2.012 -67.633 
-11.705  10.990 -65.601 
  5.955   1.593 -68.231 
 -7.277   2.876 -71.313 
 -2.801  -0.536 -64.610 
-10.663  -4.265 -66.043 
  5.207   8.710 -61.455 
  8.534 -11.543 -68.967 
 12.430  -2.543 -72.151 
-12.933   8.159 -70.669 
 -4.073   5.301 -66.367 
 -8.344   8.919 -66.612 
 13.618   5.184 -74.982 
 -6.050  -7.093 -60.323 
-12.645  12.142 -73.228 
 -8.665  -4.514 -64.229 
-12.221  -1.244 -74.421 
 -6.171   7.556 -68.669 
 10.205   5.077 -63.087 
  9.997   1.355 -71.050 
 -3.145  -0.758 -70.700 
  4.197  -5.592 -73.240 
  0.314 -10.470 -73.469 
  7.236   8.748 -73.654 
  1.726   4.867 -74.514 
-14.180  10.789 -76.870 
  5.603   7.037 -75.973 
 -1.939   1.102 -64.338 
 15.906   6.960 -68.505 
 11.244  -9.245 -67.075 
 -3.917   3.486 -67.154 
 14.268  -1.212 -72.335 
 11.515   1.557 -63.454 
  4.022   9.511 -66.885 
-12.351  -3.187 -65.165 
 -4.905  -9.876 -69.020 
  3.716 -10.918 -67.999 
 10.096   3.949 -69.331 
 -1.633   9.553 -74.092 
 -3.605  -7.460 -67.977 
 -1.827  -7.365 -68.851 
 -9.261   3.585 -75.410 
 -2.421   9.535 -66.081 
-11.884  -2.596 -65.439 
 11.764  -5.918 -70.912 
 -5.988  -0.973 -75.295 
  2.664 -11.968 -71.815 
  2.668   0.457 -68.922 
 16.663  -6.185 -76.082 
 -1.494 -11.269 -65.142 
  3.537  -3.005 -65.389 
-11.174   2.619 -72.029 
-13.093  12.770 -66.725 
  6.915  -7.341 -64.485 
  1.144  -4.533 -71.448 
  8.456   9.478 -71.805 
  8.133  -8.221 -64.504 
 -0.637   2.420 -71.838 
  4.970   3.876 -63.682 
 -5.633 -12.265 -66.252 
  7.919  -0.908 -73.242 
-11.044   3.672 -75.216 
 15.814   9.733 -70.468 
  1.675  -4.572 -71.135 
-13.230 -11.730 -71.187 
 -7.452  -0.774 -61.617 
-13.961  10.345 -67.701 
  0.530  -1.510 -73.043 
-14.526   4.477 -69.445 
 10.287   6.335 -68.237 
  2.019   2.304 -69.220 
 -8.555   7.776 -73.685 
 10.211   4.091 -70.815 
 -4.815  -9.017 -71.629 
 11.529   2.046 -67.573 
 -3.523  -7.751 -62.109 
 -8.788  10.951 -63.949 
  3.974  -7.984 -66.796 
 15.206   0.310 -65.187 
-14.007  -9.335 -74.661 
 -7.842  10.035 -63.557 
  6.791  -1.088 -72.317 
 11.521   1.122 -66.503 
 15.447  11.444 -73.275 
 -8.958  -8.077 -75.811 
-10.159  -4.687 -74.411 
 -4.628  -4.748 -75.263 
  9.348 -11.791 -66.528 
 14.735   2.642 -66.668 
  5.910   1.276 -65.628 
-13.054   3.749 -74.899 
 -5.107  -0.052 -70.178 
 14.037  -6.034 -68.717 
-12.834   0.485 -70.809 
  8.156  10.856 -74.186 
 11.563   8.681 -66.382 
  6.075   1.536 -66.797 
  1.527   2.104 -63.692 
 10.459  -7.556 -64.888 
-12.749 -11.147 -75.289 
-12.742   7.606 -66.522 
-14.431   2.014 -67.766 
 -1.424  -3.821 -68.558 
 -5.732   6.402 -69.340 
 14.899   4.812 -62.631 
 12.320  10.723 -68.352 
  1.262  -2.036 -73.394 
  0.285  -5.902 -63.243 
  8.390  10.146 -66.674 
 -4.791   3.809 -62.040 
 -9.339   4.428 -63.073 
 12.087  10.085 -66.500 
 11.791 -11.913 -68.887 
 -4.848   6.998 -66.995 
 14.368  -3.967 -73.186 
 12.221   7.178 -67.309 
-11.964 -11.426 -62.044 
-13.628 -12.294 -66.091 
  6.699  -9.660 -65.475 
  9.102  -3.162 -71.076 
 14.125  10.956 -69.406 
  8.704  -5.859 -65.638 
 15.701  -2.543 -73.694 
 -4.934   9.659 -62.654 
  5.702  -2.395 -64.193 
 16.017  -8.837 -70.935 
 13.090   6.810 -64.255 
-11.863   5.278 -68.511 
-13.520   6.136 -67.743 
 -4.686  -4.203 -66.655 
-12.525   2.797 -77.441 
 14.619   7.326 -74.432 
  8.192  -1.505 -63.641 
  1.867  -6.574 -67.020 
 -3.985  -8.471 -74.467 
 10.144   5.208 -64.471 
  1.134  -8.632 -64.814 
  9.607   2.984 -62.010 
 12.500   0.100 -71.791 
-11.668  12.660 -66.178 
 -6.377  -7.377 -65.395 
  1.213   2.822 -71.090 
-11.451  -8.966 -72.185 
 -7.408   6.364 -67.876 
  8.074  -4.511 -74.992 
 11.723  10.518 -70.776 
 12.554   9.002 -72.808 
 -5.709  -4.370 -72.568 
 11.995   6.133 -66.157 
 -6.140  11.262 -69.517 
 14.895  10.165 -65.683 
  2.244  -1.666 -72.820 
 -3.383  -1.620 -61.749 
  3.189   9.979 -73.168 
  1.932  -5.274 -64.262 
  3.508  -1.107 -69.314 
 -5.768   7.385 -68.948 
 -6.025   1.102 -71.492 
  5.099   9.410 -65.719 
 -2.833   6.155 -65.896 
 -0.025 -11.431 -70.938 
  2.128   8.118 -71.609 
  8.893   8.084 -70.435 
-11.677   4.969 -62.054 
-11.224  11.425 -65.573 
-11.616   0.349 -64.505 
  0.011  12.312 -65.192 
 -4.921  -8.686 -68.657 
  7.250  -7.405 -66.965 
  3.362  10.530 -73.296 
 -4.450   8.091 -63.913 
 11.721  -0.252 -73.642 
 -9.404   9.614 -75.119 
 14.198  -6.023 -66.922 
  2.035   4.732 -65.825 
  5.765  10.962 -72.222 
  9.754   7.947 -63.475 
 -9.449  -8.479 -67.061 
  1.917  10.320 -69.133 
  8.364  -5.629 -73.034 
  0.975  11.334 -71.351 
-10.536   7.774 -68.935 
 -1.260  -8.777 -65.019 
 -4.624  -4.749 -69.767 
 -2.075  12.505 -69.871 
  1.401  -3.990 -62.749 
 -8.824   3.760 -69.495 
  0.385  -3.150 -60.892 
  1.212   5.209 -61.534 
 -7.285 -11.164 -71.538 
  2.041  -1.534 -65.960 
 -3.482  -1.810 -66.303 
 -4.353  -2.460 -64.182 
  0.126 -11.116 -73.178 
 10.906  -5.803 -70.476 
 -9.621  -9.684 -62.909 
 -6.922   6.507 -72.343 
 -7.156  -3.852 -65.904 
  8.466   8.012 -66.803 
 -4.319   1.630 -74.983 
 11.413  11.066 -65.368 
 -7.015   3.397 -66.062 
-12.041  -8.533 -71.634 
 -0.348  11.236 -73.263 
-13.436  11.685 -65.728 
  9.899 -10.765 -64.916 
  4.713  -3.130 -70.331 
-13.927  -0.829 -65.998 
-13.985  -2.982 -68.737 
-10.102 -11.691 -67.965 
-13.958 -12.054 -70.841 
 11.005   7.978 -62.851 
  9.063  -7.673 -64.309 
  7.002 -11.191 -65.034 
 -4.159  -2.996 -62.810 
 -6.795   6.158 -70.548 
  1.462   7.391 -74.900 
 -2.897  -1.304 -63.648 
 -9.297 -12.599 -65.711 
 10.367   0.929 -62.591 
 10.723 -11.323 -71.902 
  4.236   1.014 -74.650 
  8.045  10.217 -63.692 
 16.415  -1.087 -66.847 
 -3.505   7.286 -73.285 
 -6.867 -11.531 -65.650 
  5.846  -7.858 -64.154 
 -8.246  11.368 -70.239 
-15.619   2.395 -73.694 
 -1.406 -11.784 -70.853 
 -0.231   4.127 -63.825 
  0.644  -2.101 -62.828 
 10.666  10.721 -63.982 
  9.344  12.518 -70.214 
 -6.583   9.411 -75.171 
 13.537  -7.248 -65.701 
  8.428   7.635 -65.127 
  3.021  -6.101 -75.575 
 13.461  -1.781 -63.073 
-14.017  -7.535 -73.149 
-13.052  -8.343 -63.895 
  3.434 -10.416 -74.494 
  3.777 -10.683 -77.197 
-15.642  -3.041 -72.396 
-13.819  10.838 -74.496 
 -1.590   5.564 -69.285 
 -4.332  11.539 -72.458 
 -1.100   3.703 -69.294 
 -4.404   4.819 -73.341 
  1.954   8.601 -77.412 
 -2.700 -12.559 -67.546 
 -4.338  -8.669 -60.064 
  6.004   1.740 -65.069 
 -6.101   0.869 -62.395 
 -0.763  -0.919 -70.721 
 10.059   0.547 -63.197 
  1.889 -10.520 -72.809 
  3.492  -2.912 -60.591 
-13.417   6.936 -64.376 
  2.925  -4.841 -67.103 
 -6.941   7.071 -61.767 
 12.882  -2.384 -62.311 
  6.214   5.136 -64.838 
 13.782  -4.066 -64.868 
-14.865 -11.567 -71.037 
 14.875   9.730 -65.359 
 15.055  10.296 -73.899 
 -0.854  -5.028 -60.141 
 17.616 -11.659 -68.606 
 -5.226  -0.601 -75.393 
-13.943  -9.874 -69.050 
-11.843  12.146 -66.916 
  4.862  -6.441 -76.161 
  7.175  -7.875 -65.647 
  2.244  -8.114 -61.999 
 -9.364  10.313 -75.059 
 18.301 -12.931 -69.659 
  9.942  -2.264 -62.841 
 -7.923   0.461 -72.159 
 16.749 -11.432 -68.246 
-15.881   1.011 -73.436 
-14.337  -0.108 -66.944 
 17.235  -3.019 -66.703 
 17.310  -8.143 -66.311 
-13.159  -7.140 -72.534 
 16.111  -8.625 -65.323 
-12.117  -5.499 -63.895 
  2.202   2.535 -76.727 
 16.368  -6.644 -63.279 
  4.332  -4.237 -70.363 
-15.737   8.865 -76.391 
 -4.087  -1.176 -67.126 
 12.696  -5.138 -67.950 
  1.561   1.224 -77.435 
 -9.160   6.396 -73.376 
-13.662  -3.474 -65.359 
  5.903  -1.305 -76.503 
-10.871   0.428 -77.492 
 -5.061  -4.095 -65.943 
 18.061   3.830 -71.212 
 -7.770  -1.886 -60.350 
 -7.399  -3.457 -68.254 
 -1.450  -6.267 -77.226 
 -1.494 -10.072 -67.849 
 -2.982   6.226 -71.852 
 -9.416  -2.189 -70.647 
 -5.174   3.789 -65.731 
  8.653 -10.893 -62.709 
 12.919  -4.306 -66.019 
-13.241   6.297 -69.509 
  7.325 -11.948 -70.170 
 12.290   8.054 -64.364 
  0.850 -11.160 -64.617 
-15.546  -1.795 -73.047 
  1.448 -11.874 -75.285 
 18.393  10.717 -72.032 
  3.279  -2.482 -65.803 
  4.276  -1.641 -68.995 
  7.388   9.526 -64.403 
-13.862   5.124 -71.341 
 -2.734  -1.519 -68.553 
 13.833   0.242 -59.279 
-10.841   3.782 -58.731 
 14.608   4.447 -64.847 
 -5.779   6.918 -71.504 
 -2.190  -4.144 -67.564 
 -0.352   7.168 -60.520 
-15.380  -6.455 -75.778 
  8.726  -8.194 -65.542 
 -6.766  -2.652 -68.042 
-13.856   8.393 -74.630 
 -7.210  -8.201 -61.398 
 -6.015  10.075 -63.995 
 -3.296  -7.005 -74.718 
 -6.014  10.362 -70.231 
 -9.346   2.699 -68.121 
  8.770 -10.698 -60.439 
  5.063  -9.752 -61.432 
  4.533   2.248 -68.280 
 -9.960   0.843 -73.537 
  6.700 -10.458 -66.270 
 15.708  -5.213 -66.535 
 15.996   8.393 -64.956 
  6.347  10.922 -74.288 
 -3.341   0.509 -74.111 
  3.303   8.232 -64.322 
  5.472   6.675 -61.439 
-10.146  10.706 -76.490 
 -8.780   6.664 -58.426 
 10.325  -7.415 -75.620 
 -2.268  10.500 -75.187 

 VERTICES 511 1022 
1 0 
1 1 
1 2 
1 3 
1 4 
1 5 
1 6 
1 7 
1 8 
1 9 
1 10 
1 11 
1 12 
1 13 
1 14 
1 15 
1 16 
1 17 
1 18 
1 19 
1 20 
1 21 
1 22 
1 23 
1 24 
1 25 
1 26 
1 27 
1 28 
1 29 
1 30 
1 31 
1 32 
1 33 
1 34 
1 35 
1 36 
1 37 
1 38 
1 39 
1 40 
1 41 
1 42 
1 43 
1 44 
1 45 
1 46 
1 47 
1 48 
1 49 
1 50 
1 51 
1 52 
1 53 
1 54 
1 55 
1 56 
1 57 
1 58 
1 59 
1 60 
1 61 
1 62 
1 63 
1 64 
1 65 
1 66 
1 67 
1 68 
1 69 
1 70 
1 71 
1 72 
1 73 
1 74 
1 75 
1 76 
1 77 
1 78 
1 79 
1 80 
1 81 
1 82 
1 83 
1 84 
1 85 
1 86 
1 87 
1 88 
1 89 
1 90 
1 91 
1 92 
1 93 
1 94 
1 95 
1 96 
1 97 
1 98 
1 99 
1 100 
1 101 
1 102 
1 103 
1 104 
1 105 
1 106 
1 107 
1 108 
1 109 
1 110 
1 111 
1 112 
1 113 
1 114 
1 115 
1 116 
1 117 
1 118 
1 119 
1 120 
1 121 
1 122 
1 123 
1 124 
1 125 
1 126 
1 127 
1 128 
1 129 
1 130 
1 131 
1 132 
1 133 
1 134 
1 135 
1 136 
1 137 
1 138 
1 139 
1 140 
1 141 
1 142 
1 143 
1 144 
1 145 
1 146 
1 147 
1 148 
1 149 
1 150 
1 151 
1 152 
1 153 
1 154 
1 155 
1 156 
1 157 
1 158 
1 159 
1 160 
1 161 
1 162 
1 163 
1 164 
1 165 
1 166 
1 167 
1 168 
1 169 
1 170 
1 171 
1 172 
1 173 
1 174 
1 175 
1 176 
1 177 
1 178 
1 179 
1 180 
1 181 
1 182 
1 183 
1 184 
1 185 
1 186 
1 187 
1 188 
1 189 
1 190 
1 191 
1 192 
1 193 
1 194 
1 195 
1 196 
1 197 
1 198 
1 199 
1 200 
1 201 
1 202 
1 203 
1 204 
1 205 
1 206 
1 207 
1 208 
1 209 
1 210 
1 211 
1 212 
1 213 
1 214 
1 215 
1 216 
1 217 
1 218 
1 219 
1 220 
1 221 
1 222 
1 223 
1 224 
1 225 
1 226 
1 227 
1 228 
1 229 
1 230 
1 231 
1 232 
1 233 
1 234 
1 235 
1 236 
1 237 
1 238 
1 239 
1 240 
1 241 
1 242 
1 243 
1 244 
1 245 
1 246 
1 247 
1 248 
1 249 
1 250 
1 251 
1 252 
1 253 
1 254 
1 255 
1 256 
1 257 
1 258 
1 259 
1 260 
1 261 
1 262 
1 263 
1 264 
1 265 
1 266 
1 267 
1 268 
1 269 
1 270 
1 271 
1 272 
1 273 
1 274 
1 275 
1 276 
1 277 
1 278 
1 279 
1 280 
1 281 
1 282 
1 283 
1 284 
1 285 
1 286 
1 287 
1 288 
1 289 
1 290 
1 291 
1 292 
1 293 
1 294 
1 295 
1 296 
1 297 
1 298 
1 299 
1 300 
1 301 
1 302 
1 303 
1 304 
1 305 
1 306 
1 307 
1 308 
1 309 
1 310 
1 311 
1 312 
1 313 
1 314 
1 315 
1 316 
1 317 
1 318 
1 319 
1 320 
1 321 
1 322 
1 323 
1 324 
1 325 
1 326 
1 327 
1 328 
1 329 
1 330 
1 331 
1 332 
1 333 
1 334 
1 335 
1 336 
1 337 
1 338 
1 339 
1 340 
1 341 
1 342 
1 343 
1 344 
1 345 
1 346 
1 347 
1 348 
1 349 
1 350 
1 351 
1 352 
1 353 
1 354 
1 355 
1 356 
1 357 
1 358 
1 359 
1 360 
1 361 
1 362 
1 363 
1 364 
1 365 
1 366 
1 367 
1 368 
1 369 
1 370 
1 371 
1 372 
1 373 
1 374 
1 375 
1 376 
1 377 
1 378 
1 379 
1 380 
1 381 
1 382 
1 383 
1 384 
1 385 
1 386 
1 387 
1 388 
1 389 
1 390 
1 391 
1 392 
1 393 
1 394 
1 395 
1 396 
1 397 
1 398 
1 399 
1 400 
1 401 
1 402 
1 403 
1 404 
1 405 
1 406 
1 407 
1 408 
1 409 
1 410 
1 411 
1 412 
1 413 
1 414 
1 415 
1 416 
1 417 
1 418 
1 419 
1 420 
1 421 
1 422 
1 423 
1 424 
1 425 
1 426 
1 427 
1 428 
1 429 
1 430 
1 431 
1 432 
1 433 
1 434 
1 435 
1 436 
1 437 
1 438 
1 439 
1 440 
1 441 
1 442 
1 443 
1 444 
1 445 
1 446 
1 447 
1 448 
1 449 
1 450 
1 451 
1 452 
1 453 
1 454 
1 455 
1 456 
1 457 
1 458 
1 459 
1 460 
1 461 
1 462 
1 463 
1 464 
1 465 
1 466 
1 467 
1 468 
1 469 
1 470 
1 471 
1 472 
1 473 
1 474 
1 475 
1 476 
1 477 
1 478 
1 479 
1 480 
1 481 
1 482 
1 483 
1 484 
1 485 
1 486 
1 487 
1 488 
1 489 
1 490 
1 491 
1 492 
1 493 
1 494 
1 495 
1 496 
1 497 
1 498 
1 499 
1 500 
1 501 
1 502 
1 503 
1 504 
1 505 
1 506 
1 507 
1 508 
1 509 
1 510 
POINT_DATA 511 
SCALARS MeanU double 1 
LOOKUP_TABLE default
0.16141 
0.18164 
0.11597 
0.09389 
0.07508 
0.17340 
0.15644 
0.14461 
0.15860 
0.17951 
0.11346 
0.15581 
0.11670 
0.11744 
0.05679 
0.07014 
0.16860 
0.18219 
0.15352 
0.17481 
0.09087 
0.18365 
0.18223 
0.11064 
0.15822 
0.10368 
0.14958 
0.17775 
0.04811 
0.14629 
0.11100 
0.06659 
0.11451 
0.04284 
0.12011 
0.12799 
0.10152 
0.08686 
0.15980 
0.17321 
0.23554 
0.23822 
0.16197 
0.06272 
0.14883 
0.10113 
0.15377 
0.09982 
0.16496 
0.06181 
0.09551 
0.07133 
0.17380 
0.16762 
0.12750 
0.12275 
0.04270 
0.12405 
0.09320 
0.13077 
0.09891 
0.13007 
0.15803 
0.07573 
0.13850 
0.17879 
0.17124 
0.14166 
0.11403 
0.14111 
0.13096 
0.10803 
0.16572 
0.08671 
0.16594 
0.11684 
0.10234 
0.10875 
0.10956 
0.18448 
0.09399 
0.05740 
0.10187 
0.13417 
0.15151 
0.18706 
0.10505 
0.10346 
0.03767 
0.16552 
0.10706 
0.16311 
0.15179 
0.06165 
0.03958 
0.12465 
0.18788 
0.11133 
0.10385 
0.15849 
0.14052 
0.12234 
0.14512 
0.07272 
0.10014 
0.24196 
0.07541 
0.20079 
0.09601 
0.15982 
0.12350 
0.12291 
0.12303 
0.14887 
0.20018 
0.12307 
0.09227 
0.16805 
0.08871 
0.13691 
0.22912 
0.17060 
0.10650 
0.18133 
0.16488 
0.14543 
0.16594 
0.14241 
0.12319 
0.15258 
0.17985 
0.06479 
0.14193 
0.20947 
0.06023 
0.14792 
0.15874 
0.06990 
0.16680 
0.08819 
0.11080 
0.14700 
0.10085 
0.17081 
0.14369 
0.19521 
0.09861 
0.11540 
0.17061 
0.11326 
0.07245 
0.06339 
0.09146 
0.12903 
0.10213 
0.05870 
0.14554 
0.13597 
0.16643 
0.09073 
0.05766 
0.04116 
0.15754 
0.05770 
0.12352 
0.17015 
0.17777 
0.09280 
0.06022 
0.12030 
0.09381 
0.10831 
0.08377 
0.09454 
0.05895 
0.13338 
0.06605 
0.14158 
0.22980 
0.21102 
0.11406 
0.13994 
0.12738 
0.10682 
0.10062 
0.04475 
0.06667 
0.11250 
0.07547 
0.13361 
0.11510 
0.04161 
0.12096 
0.11444 
0.11810 
0.12841 
0.18030 
0.13765 
0.09488 
0.16263 
0.18092 
0.05854 
0.19381 
0.14747 
0.06466 
0.09265 
0.16256 
0.19742 
0.08560 
0.16522 
0.18560 
0.05762 
0.04231 
0.04533 
0.14383 
0.12166 
0.09552 
0.13395 
0.20230 
0.12280 
0.10384 
0.08206 
0.11083 
0.14227 
0.15323 
0.10664 
0.03293 
0.07496 
0.01573 
0.11782 
0.19247 
0.05656 
0.10478 
0.14599 
0.07314 
0.09989 
0.11366 
0.17726 
0.05938 
0.15507 
0.10692 
0.11671 
0.09861 
0.07797 
0.06169 
0.08239 
0.03190 
0.15120 
0.10187 
0.13239 
0.11354 
0.12048 
0.03270 
0.07235 
0.10991 
0.06415 
0.14638 
0.13382 
0.07580 
0.02483 
0.04878 
0.18900 
0.13516 
0.08642 
0.16489 
0.05621 
0.08349 
0.16050 
0.06467 
0.12866 
0.18361 
0.08646 
0.04553 
0.15126 
0.07044 
0.06038 
0.06145 
0.05094 
0.09813 
0.12673 
0.05674 
0.05140 
0.08013 
0.12542 
0.18279 
0.04194 
0.20175 
0.12142 
0.02141 
0.14262 
0.04345 
0.15507 
0.18800 
0.20035 
0.11570 
0.14893 
0.15067 
0.27322 
0.10087 
0.11812 
0.13493 
0.09739 
0.15960 
0.11778 
0.07321 
0.07868 
0.11578 
0.14901 
0.10986 
0.08759 
0.06302 
0.13779 
0.13061 
0.09381 
0.09589 
0.13484 
0.09777 
0.05070 
0.16232 
0.13460 
0.11546 
0.09774 
0.10116 
0.14803 
0.07261 
0.13430 
0.11491 
0.11390 
0.15048 
0.07860 
0.11804 
0.06314 
0.07987 
0.09250 
0.12665 
0.12989 
0.09789 
0.21411 
0.12527 
0.13436 
0.10095 
0.09220 
0.11450 
0.13698 
0.12295 
0.15845 
0.11579 
0.09049 
0.16182 
0.10573 
0.15233 
0.13466 
0.12449 
0.16088 
0.07760 
0.10275 
0.09784 
0.17621 
0.09525 
0.08090 
0.10150 
0.22096 
0.12295 
0.08593 
0.05638 
0.13384 
0.20117 
0.15128 
0.12652 
0.14942 
0.09383 
0.14486 
0.09033 
0.11986 
0.08814 
0.18222 
0.13657 
0.14725 
0.11495 
0.14552 
0.03163 
0.12143 
0.11492 
0.08584 
0.07009 
0.13856 
0.12720 
0.08468 
0.08901 
0.10576 
0.20312 
0.14658 
0.08990 
0.18602 
0.08582 
0.09778 
0.17881 
0.11854 
0.07263 
0.10796 
0.15785 
0.08278 
0.06349 
0.07050 
0.05209 
0.10755 
0.09122 
0.14535 
0.06059 
0.08163 
0.15370 
0.13004 
0.13598 
0.06550 
0.13405 
0.17934 
0.19359 
0.15200 
0.12887 
0.19227 
0.11826 
0.10890 
0.17455 
0.12001 
0.13198 
0.10999 
0.10559 
0.16094 
0.07981 
0.06064 
0.16963 
0.07232 
0.10361 
0.09860 
0.17559 
0.08247 
0.11473 
0.20631 
0.06629 
0.08633 
0.17223 
0.16801 
0.06667 
0.04100 
0.09435 
0.11082 
0.24229 
0.05544 
0.19432 
0.12586 
0.04770 
0.14092 
0.06958 
0.13923 
0.05430 
0.10705 
0.07796 
0.12572 
0.19081 
0.05231 
0.13586 
0.09989 
0.06881 
0.19618 
0.04441 
0.14466 
0.10534 
0.09617 
0.13239 
0.04435 
0.16581 
0.17455 
0.18794 
0.14139 
0.09012 
0.06055 
0.13491 
0.16231 
0.14257 
0.03808 
0.10275 
0.19470 
0.07727 
0.12710 
0.06604 
0.14255 
0.16892 
0.13971 
0.08810 
0.11422 
0.07105 
0.18449 
0.09755 
0.11130 
0.12228 
0.15469 
0.10060 
0.21363 
0.14287 
0.10920 
0.18091 
0.07040 
0.19214 
0.15923 
0.08599 
0.17898 
0.18061 
0.07353 
0.12057 
0.07111 
0.09155 

 VECTORS Umean float 
0.01850 0.14850 -0.06050 
0.06950 0.14100 -0.09100 
0.00300 0.11550 0.01000 
0.03100 0.07750 0.04300 
-0.01050 0.07200 -0.01850 
0.03550 0.15800 -0.06200 
-0.01500 0.14150 -0.06500 
0.02450 0.12950 0.05950 
0.00650 0.15550 0.03050 
0.06200 0.16800 -0.01250 
0.02650 0.10800 0.02250 
0.06650 0.11800 -0.07700 
0.02950 0.10650 0.03750 
0.03050 0.10000 -0.05350 
0.04650 0.02750 -0.01750 
0.04650 0.05100 -0.01250 
0.03700 0.16350 0.01800 
0.06350 0.16200 -0.05400 
0.04550 0.14600 -0.01350 
0.00300 0.14300 -0.10050 
-0.01400 0.04700 -0.07650 
0.02900 0.18050 -0.01750 
0.03750 0.17650 -0.02550 
0.06450 0.04100 -0.08000 
0.02300 0.11700 -0.10400 
-0.03300 0.09800 0.00750 
0.05350 0.07150 -0.12000 
0.05300 0.16750 0.02700 
0.00150 0.03400 -0.03400 
0.03200 0.13800 -0.03650 
-0.05050 0.09700 -0.01900 
-0.06150 0.02350 0.01000 
0.00150 0.09100 -0.06950 
0.03700 -0.00500 0.02100 
-0.04500 0.10450 -0.03850 
0.03500 0.08400 -0.09000 
0.06400 0.07850 -0.00700 
0.01950 0.08450 -0.00500 
0.08100 0.07350 -0.11650 
0.05950 0.14800 -0.06750 
0.14700 0.08350 -0.16400 
0.09050 0.19400 0.10450 
0.06250 0.13550 -0.06300 
0.00050 0.05100 -0.03650 
0.01750 0.14600 0.02300 
0.00450 0.08750 -0.05050 
0.11200 0.07450 -0.07450 
-0.06300 0.07050 -0.03200 
0.10750 0.12450 0.01250 
0.01850 -0.00750 0.05850 
0.04350 0.08200 -0.02250 
-0.00850 0.06850 -0.01800 
0.11800 0.12150 0.03900 
0.03600 0.13000 -0.09950 
0.01500 0.11150 -0.06000 
0.02450 0.08800 -0.08200 
0.01350 0.03300 -0.02350 
-0.11200 0.04150 -0.03350 
-0.06550 0.05600 -0.03550 
0.01800 0.12950 0.00250 
0.05800 0.07850 -0.01600 
0.03400 0.10250 0.07250 
0.07450 0.12950 -0.05150 
0.00600 0.05700 0.04950 
-0.01500 0.13600 -0.02150 
0.09350 0.15200 0.01100 
0.11650 0.00050 -0.12550 
0.04800 0.11550 -0.06650 
0.02400 0.05750 -0.09550 
0.03450 0.13550 0.01900 
0.10450 0.07100 -0.03450 
0.03350 0.09350 0.04250 
0.12000 0.11350 -0.01350 
-0.05600 0.03900 -0.05350 
0.01350 0.15700 0.05200 
0.03700 0.09650 0.05450 
0.02900 0.09150 -0.03550 
0.02300 0.10500 -0.01650 
-0.00950 0.09150 0.05950 
0.07250 0.14850 0.08200 
0.08350 0.04250 -0.00750 
0.00050 0.05450 -0.01800 
0.05650 0.08200 -0.02150 
0.00350 0.13000 -0.03300 
0.01200 0.12450 -0.08550 
0.13000 0.08650 -0.10300 
0.02050 0.10200 0.01450 
0.05400 0.04400 -0.07650 
-0.03050 0.01350 -0.01750 
0.08000 0.12950 -0.06500 
0.02950 0.09350 0.04300 
0.03700 0.10800 -0.11650 
0.00050 0.15100 0.01550 
0.03500 0.04200 -0.02850 
0.02250 0.03200 -0.00600 
-0.03500 0.07400 -0.09400 
0.11050 0.13100 -0.07700 
0.08800 0.06100 0.03050 
0.01200 0.07800 0.06750 
0.06150 0.14600 -0.00450 
0.03450 0.13550 0.01400 
-0.00250 0.10200 0.06750 
0.02300 0.11750 -0.08200 
0.02600 0.06750 -0.00750 
0.00800 0.06700 0.07400 
0.16550 0.06000 -0.16600 
0.00400 0.06000 -0.04550 
0.06600 0.16050 0.10100 
0.05550 0.07750 -0.01150 
0.02050 0.12650 -0.09550 
0.06100 0.10500 -0.02250 
0.05650 0.10550 0.02800 
0.10000 0.06950 -0.01750 
-0.01500 0.14750 -0.01350 
0.07050 0.10450 -0.15550 
0.00050 0.12050 -0.02500 
0.03950 0.08300 -0.00800 
0.00850 0.08100 -0.14700 
0.07700 0.02800 0.03400 
0.07550 0.11400 0.00700 
0.09600 0.10850 -0.17750 
0.05900 0.10000 -0.12500 
-0.01450 0.02500 -0.10250 
0.04550 0.15700 -0.07850 
0.08650 0.09800 -0.10050 
-0.07300 0.11000 -0.06100 
0.05400 0.05350 -0.14750 
0.07950 0.09900 -0.06450 
0.04600 0.04950 -0.10300 
0.07600 0.08050 -0.10500 
0.13100 0.09700 -0.07600 
0.01500 0.04700 -0.04200 
0.04700 0.13250 -0.01950 
0.03200 0.20650 -0.01450 
0.05750 0.01550 -0.00900 
0.04500 0.12200 -0.07050 
0.07400 0.06400 -0.12500 
0.02150 0.06650 0.00100 
0.11950 0.06650 -0.09550 
-0.01100 0.07250 -0.04900 
0.02600 0.10300 -0.03150 
0.04000 0.11700 -0.07950 
0.04550 0.09000 0.00050 
0.09650 0.03700 -0.13600 
0.07050 0.07400 -0.10100 
0.11600 0.15100 -0.04300 
0.00150 0.08250 -0.05400 
0.03150 0.10600 0.03300 
0.11100 0.06600 -0.11150 
0.06100 0.05900 0.07500 
0.03750 0.02550 -0.05650 
0.02850 0.02750 -0.04950 
0.01400 0.08700 -0.02450 
0.08400 0.08750 -0.04400 
0.05050 0.04050 -0.07900 
-0.02900 0.04200 -0.02900 
0.10600 0.09800 -0.01850 
0.05550 0.11750 0.04000 
0.03950 0.16150 0.00750 
0.07000 0.05250 0.02400 
0.02450 0.04800 -0.02050 
0.03700 0.01250 -0.01300 
-0.01150 0.12700 -0.09250 
0.04300 0.03400 0.01800 
0.03100 0.11600 -0.02900 
0.06100 0.08450 -0.13450 
0.02250 0.16850 -0.05200 
0.05350 0.05000 0.05700 
0.00350 0.04150 -0.04350 
0.06000 0.05350 0.08950 
0.01800 0.09200 -0.00350 
0.06000 0.09000 -0.00550 
0.00650 0.02400 -0.08000 
0.02650 0.08950 0.01500 
0.05500 0.02050 -0.00550 
0.04150 0.09750 -0.08100 
-0.01050 0.03800 -0.05300 
0.04850 0.13300 0.00150 
0.09700 0.16850 -0.12250 
0.12150 0.14200 -0.09800 
0.05600 0.09300 -0.03500 
-0.05450 0.11300 0.06200 
0.05750 0.10950 -0.03050 
-0.04100 0.05250 -0.08350 
0.04650 0.06650 -0.05950 
-0.01750 0.02000 -0.03600 
-0.03100 -0.00150 -0.05900 
0.08250 0.06800 0.03500 
0.00550 0.07100 -0.02500 
0.08450 0.10350 0.00050 
0.05900 0.09400 0.03050 
-0.00500 0.00500 -0.04100 
0.03150 0.11450 -0.02300 
0.00900 0.11350 0.01150 
0.05400 0.06500 -0.08250 
-0.01700 0.12100 -0.03950 
0.09550 0.01150 -0.15250 
0.06450 0.07200 -0.09800 
-0.04100 0.06100 -0.06000 
0.09300 0.11000 -0.07550 
0.08700 0.12850 -0.09300 
0.02350 0.05350 -0.00350 
0.03800 0.18600 -0.03900 
0.04350 0.08000 -0.11600 
0.03200 0.04900 0.02750 
0.00050 0.09000 0.02200 
0.09200 0.13050 -0.03050 
0.05850 0.18800 -0.01450 
-0.04750 0.04700 -0.05350 
0.08600 0.10100 -0.09850 
0.09550 0.12950 -0.09250 
0.01550 0.01800 -0.05250 
0.03900 0.01300 0.01000 
0.01950 0.03450 -0.02200 
0.02750 0.11700 -0.07900 
-0.03250 0.06200 -0.09950 
0.00800 0.09500 -0.00600 
0.07650 0.10900 0.01450 
0.09600 0.17000 -0.05300 
0.10850 0.02350 -0.05250 
-0.00800 0.09300 -0.04550 
0.05300 0.05500 -0.03000 
0.01350 0.08000 -0.07550 
0.03550 0.10600 -0.08800 
-0.03850 0.13650 -0.05800 
0.01100 0.05450 -0.09100 
0.02050 0.02450 -0.00800 
-0.00950 0.06450 0.03700 
0.00650 0.00700 -0.01250 
0.10550 0.04850 0.02000 
0.01550 0.18050 -0.06500 
0.00650 0.05250 -0.02000 
0.08300 0.04950 -0.04050 
0.02950 0.13850 0.03550 
0.02850 0.02100 -0.06400 
0.03750 0.08900 -0.02550 
-0.02150 0.11150 -0.00500 
0.09250 0.12800 -0.08050 
0.03350 0.04800 0.01000 
0.00900 0.14050 -0.06500 
-0.01650 0.10450 -0.01550 
0.00100 0.11400 -0.02500 
0.02750 0.09350 -0.01500 
-0.04750 0.03100 -0.05350 
0.01900 0.01400 -0.05700 
-0.03150 0.07600 -0.00450 
0.01250 0.02700 -0.01150 
0.08050 0.09950 0.08050 
0.02150 0.07500 0.06550 
0.06000 0.10950 -0.04400 
0.07650 0.05050 -0.06700 
-0.00250 0.12000 -0.01050 
-0.02950 0.00550 0.01300 
0.03300 0.06400 0.00700 
-0.03150 0.03300 -0.10000 
-0.00900 0.06350 -0.00150 
0.02550 0.12400 -0.07350 
0.04450 0.12400 -0.02350 
0.03300 0.06750 -0.01000 
-0.01850 -0.01450 -0.00800 
0.01050 0.04450 0.01700 
0.02950 0.18500 -0.02500 
0.06750 0.11250 -0.03250 
0.06350 0.05800 0.00850 
0.07950 0.11300 0.09000 
-0.02450 0.00300 -0.05050 
0.00200 0.07600 0.03450 
0.07950 0.07100 -0.12000 
0.01550 0.06000 0.01850 
0.01400 0.12750 0.01000 
-0.03050 0.17600 0.04250 
-0.04000 0.07400 -0.02000 
0.03500 -0.02800 0.00800 
0.09600 0.11450 0.02350 
0.04850 0.03300 -0.03900 
-0.00700 0.05250 -0.02900 
0.02000 0.04600 -0.03550 
-0.01000 0.03300 -0.03750 
0.07650 0.06100 0.00750 
0.10400 0.06700 -0.02750 
-0.02700 0.03050 -0.03950 
0.04600 0.00650 -0.02200 
0.01400 0.04750 -0.06300 
0.00650 0.11650 -0.04600 
0.13000 0.06300 -0.11200 
0.01050 0.04000 0.00700 
0.09750 0.16700 -0.05750 
0.10900 0.05350 0.00050 
0.02000 0.00750 0.00150 
0.10250 0.09200 -0.03700 
0.02750 0.02500 0.02250 
-0.07550 0.09350 -0.09800 
0.08000 0.11150 -0.12850 
0.08700 0.10400 -0.14750 
0.08250 0.07650 -0.02700 
0.06450 0.10550 -0.08300 
0.03850 0.11000 -0.09550 
0.10350 0.17450 -0.18300 
0.03150 0.06900 -0.06650 
0.04900 0.02050 -0.10550 
0.11800 0.04750 -0.04500 
-0.02300 0.09250 0.02000 
0.04600 0.08350 -0.12800 
0.06000 0.08900 -0.04850 
-0.02000 0.04750 -0.05200 
0.02050 0.02100 -0.07300 
-0.03600 -0.04250 -0.10150 
0.10900 0.10100 -0.01100 
0.08700 0.06550 0.01450 
0.02550 0.04450 -0.07100 
-0.00500 0.03450 0.05250 
0.07450 0.11350 -0.02350 
0.11800 0.05350 0.01650 
-0.05550 0.06450 -0.03950 
0.04750 0.04950 -0.06700 
0.00800 0.12650 -0.04600 
0.00200 0.09500 -0.02300 
0.04000 0.02950 0.01000 
0.06350 0.14350 0.04150 
-0.00400 0.13400 -0.01200 
0.09100 0.05050 -0.05000 
-0.04600 0.08400 -0.01950 
0.00900 0.05250 -0.08600 
0.04800 0.14000 0.00300 
0.02350 0.05550 -0.04050 
-0.04750 0.12300 -0.02550 
0.02350 0.11000 -0.02350 
-0.00550 0.10650 0.04000 
0.14300 0.01300 -0.04500 
-0.04400 0.05700 -0.03150 
0.01900 0.11450 -0.02150 
-0.05050 0.02250 -0.03050 
-0.03850 0.06800 -0.01650 
0.05050 0.05700 0.05250 
0.03000 0.12200 0.01600 
-0.10850 0.02600 -0.06650 
0.00150 0.09450 0.02550 
-0.04300 0.18750 -0.09400 
-0.00650 0.11950 -0.03700 
0.11400 0.03200 -0.06350 
-0.04600 0.07500 -0.04950 
0.09150 0.00750 -0.00850 
0.05700 0.08550 -0.05050 
0.09800 0.09400 -0.01800 