# vtk DataFile Version 2.0 
Xm, Ym, Zm, Uvecs, timestep 10043 
ASCII 
 
DATASET POLYDATA POINTS 489 float 
  1.597   3.818 -71.329 
  3.737   2.891 -68.936 
-10.331   2.222 -71.185 
  9.100   6.138 -71.591 
-10.994   5.390 -72.096 
  1.566   3.482 -69.262 
  6.761  -1.993 -70.376 
  4.873  -3.156 -70.462 
 -0.591   0.752 -71.352 
 -3.470   3.279 -68.392 
  1.402  10.198 -68.716 
  7.778   9.553 -70.607 
 -2.725   5.577 -70.144 
 -7.345   6.842 -72.869 
 -3.510  -0.509 -71.540 
 -1.666  10.660 -69.850 
 -5.217  -3.771 -67.836 
 -1.920   6.175 -67.991 
 -2.763   0.304 -72.578 
  5.208   2.309 -68.492 
  5.705  -3.442 -70.968 
 -0.185   8.441 -68.180 
  0.404   3.462 -68.484 
 -3.704  -5.489 -72.215 
 -2.410  -4.734 -69.888 
  8.088   2.393 -68.506 
 -4.412  11.426 -66.369 
  4.167  10.531 -69.819 
 -1.389   4.553 -72.718 
  7.857   7.415 -69.733 
  2.166   6.703 -70.429 
 -6.272  -1.178 -67.020 
 -3.383   1.650 -71.798 
 -6.354   9.475 -69.014 
  1.740  10.128 -64.599 
  1.654   4.781 -72.937 
 -0.391  -4.633 -65.822 
-12.989   7.268 -71.079 
  1.490 -10.195 -73.230 
 -8.190  -9.327 -66.219 
  7.453  -4.473 -70.777 
-12.194  -0.139 -68.897 
 -8.131  -2.964 -69.818 
  4.894   4.118 -67.678 
 -7.444  -4.444 -67.823 
 -9.232  -0.571 -70.756 
  7.721  -7.856 -71.745 
 -8.295   1.785 -69.152 
  5.971   8.569 -70.244 
 -6.732  -0.464 -67.954 
 -8.899  12.195 -69.600 
 -3.243   5.818 -69.407 
 -6.386   7.592 -63.657 
 -8.378  10.174 -74.086 
  3.203  -6.100 -70.314 
  4.185   1.726 -74.493 
-10.361  -8.754 -68.722 
 -6.441  10.844 -61.992 
 -6.185  -4.287 -68.095 
 -8.998  -3.664 -67.130 
  6.668  -8.873 -63.719 
 -7.938  -3.409 -68.429 
-13.227   5.325 -73.933 
  0.478   0.428 -68.653 
 -4.819  -5.404 -66.655 
  2.511   6.679 -63.417 
 12.136  -5.309 -68.947 
  1.549  -4.605 -70.886 
 12.062  -4.168 -69.058 
  3.361   8.889 -67.770 
 -6.521   1.804 -63.907 
 -7.540  -0.944 -75.859 
  0.702   8.351 -72.106 
  8.353  -2.676 -72.169 
 -8.201   7.547 -63.769 
-10.573   9.273 -63.716 
 13.214  -1.554 -63.411 
 11.575  10.788 -70.392 
 -7.263   9.610 -66.768 
 -2.922  -2.582 -73.926 
 -9.982  -9.258 -69.123 
  8.845  -2.415 -69.007 
  0.129  -0.259 -65.525 
  5.464  -5.149 -65.447 
  7.947   7.957 -71.974 
  4.401  -4.591 -73.147 
 -5.393   5.553 -62.434 
  0.514  -4.630 -70.301 
 -5.287  11.483 -65.321 
 10.161   7.938 -69.987 
  3.935  -2.011 -70.631 
 -6.341  -2.011 -70.672 
-11.902   1.736 -63.490 
 -3.667  -4.846 -70.505 
  1.849   5.354 -71.301 
 -5.236   3.062 -64.633 
  9.825  10.680 -67.178 
 -8.186   4.877 -68.704 
-11.474  -5.816 -69.150 
 11.349   8.838 -69.907 
 -0.547  -6.479 -66.237 
 -0.903   2.608 -68.882 
 -9.715   1.698 -67.194 
-11.441  -2.080 -73.004 
  9.483   4.085 -66.501 
 11.238  -4.216 -69.911 
-13.407   1.992 -70.536 
 -3.444   1.599 -66.115 
  0.376  -6.540 -63.948 
-10.505  -4.935 -68.501 
 -6.648   8.852 -66.406 
 -5.101  -8.088 -73.060 
-12.152   3.405 -69.034 
 -7.944  -5.955 -67.270 
  3.607  -4.761 -65.997 
  8.082   9.315 -65.409 
  7.306   8.912 -68.179 
 14.104   1.863 -69.881 
  8.046  11.182 -65.740 
  0.178  10.530 -63.745 
  6.322   2.154 -63.898 
 -8.965   7.379 -63.255 
 -6.912  12.099 -64.837 
 -8.936 -10.608 -67.110 
 -7.168   7.098 -70.715 
-14.163  -1.391 -70.621 
-12.997  10.391 -65.368 
 15.646 -10.111 -71.700 
 -5.341  -9.026 -64.136 
 -5.438   8.722 -72.956 
  2.885   9.343 -63.776 
 -6.451   4.262 -69.295 
  6.885   0.012 -69.478 
  9.553   8.079 -63.760 
 -9.437   6.184 -69.939 
-10.323  -3.165 -68.597 
-10.820   1.659 -69.846 
  9.111  11.576 -67.587 
 -3.980  11.303 -62.672 
  8.968 -12.006 -68.199 
 -3.676  -9.950 -60.743 
 -3.181  11.956 -71.616 
  5.283   8.166 -69.891 
  8.809  10.387 -69.065 
 -7.912   1.727 -64.168 
 -5.095   2.328 -72.251 
 12.127 -11.564 -65.739 
 -7.597   0.052 -68.546 
  5.371   4.284 -62.499 
  6.562  12.003 -71.011 
  7.208  12.727 -63.135 
  7.252  -5.890 -68.717 
  9.065   0.061 -71.542 
 -0.040 -10.538 -72.549 
-15.469   3.872 -70.311 
 11.182  11.921 -66.844 
 12.445   7.957 -64.103 
 -6.852  -6.891 -68.505 
 15.890 -11.947 -71.127 
  2.505   9.284 -75.010 
 14.663   8.232 -70.600 
 -4.207   1.387 -67.811 
 13.988   0.708 -65.680 
  0.048  11.158 -68.436 
 -8.833  -0.740 -61.451 
 -7.363   5.117 -61.574 
  2.918 -10.579 -66.771 
 -0.670  -9.934 -67.823 
 -7.677  -8.331 -64.766 
  8.338 -12.311 -67.547 
 -7.080   9.439 -76.530 
  0.847  -1.198 -63.295 
 10.924  -1.045 -65.466 
 12.557  -3.743 -71.558 
-10.846  12.889 -67.701 
 12.805  -4.580 -69.791 
  0.372   4.902 -62.981 
 -6.196   1.474 -72.890 
-12.067   0.709 -72.921 
  4.570  -5.694 -73.008 
-10.207   9.906 -62.261 
 -5.048   6.410 -65.816 
  0.405   7.248 -61.522 
 10.962   4.015 -64.228 
 -9.030  -6.210 -65.484 
  3.295  10.444 -67.952 
  8.720  -4.814 -72.906 
 -2.656  -6.498 -73.516 
  5.977  -3.150 -64.669 
 12.526   8.957 -73.689 
  9.180   2.724 -63.398 
 -0.458 -10.156 -76.441 
  1.716   1.561 -64.525 
 12.324   0.199 -69.210 
 13.634  -5.643 -65.625 
 13.309   8.906 -70.740 
 10.650  -3.680 -69.785 
-12.730   1.768 -70.421 
-10.714  -3.161 -67.453 
  1.327  -6.357 -65.116 
  1.760   4.901 -64.414 
 -7.502  12.206 -71.039 
  9.611  -8.015 -71.353 
 -4.805   9.563 -74.472 
-11.289  10.872 -64.429 
 -2.069   8.531 -63.177 
 -4.169  -5.121 -64.469 
 -5.962   8.742 -75.073 
 -4.598  10.233 -68.925 
 -5.688  -8.811 -69.930 
 -5.120 -10.749 -69.115 
  0.856   7.209 -76.751 
-14.636 -10.946 -72.286 
  6.619   0.220 -63.493 
-11.379   9.627 -69.289 
 -7.787  -6.213 -65.429 
  1.920  -6.917 -72.186 
-10.366  -2.719 -73.752 
 -6.234   5.901 -73.557 
-14.066  -4.265 -69.937 
 -7.141  -9.945 -66.608 
-11.085  -7.091 -68.716 
 15.790   2.999 -70.318 
 -3.604 -11.686 -63.906 
-14.749 -10.797 -76.981 
  3.022  -0.767 -74.823 
 12.681  -1.402 -70.737 
 11.850  -1.926 -69.415 
  3.946  10.437 -62.813 
-12.989  -8.161 -68.182 
  6.913   2.157 -71.676 
 -8.328  -6.174 -64.016 
  7.662  -5.982 -72.629 
 -9.707  -6.919 -64.049 
-13.521   8.003 -69.189 
 13.362  -6.329 -71.065 
-14.456  -2.029 -68.297 
-10.419   2.297 -61.956 
 -9.763  -5.184 -71.012 
  9.491 -12.294 -67.091 
 18.007  -7.034 -71.416 
-13.294   5.324 -71.030 
 14.602  -4.274 -65.969 
 13.143  10.453 -67.183 
 16.925  -0.361 -68.053 
-11.208  -4.348 -62.689 
 -4.504  -9.175 -64.111 
  9.287   6.757 -66.855 
-14.755  -8.531 -69.244 
 -2.493   2.461 -65.526 
  1.737   4.469 -67.659 
 10.977   6.580 -72.344 
  1.960  -8.948 -60.676 
-14.571   5.215 -68.436 
 -0.744  -5.027 -69.012 
  0.221  10.168 -61.022 
  2.954  11.230 -63.523 
 13.751  -0.785 -63.221 
 14.221   1.462 -68.297 
  0.224   0.781 -76.378 
 -7.183  -2.998 -73.526 
 -8.329  11.569 -75.761 
 -9.841   3.192 -64.751 
 -1.720   7.330 -71.651 
  7.667 -11.249 -69.956 
 -5.740  -3.311 -69.389 
-13.322  -1.150 -73.844 
 13.015  -0.841 -67.664 
-11.439 -11.170 -72.697 
  5.498 -10.114 -74.246 
 -0.129   6.850 -75.904 
  6.961  -0.508 -62.814 
-14.925  -6.383 -74.319 
 11.254   2.170 -62.037 
 -0.835   1.404 -68.651 
  9.703   2.189 -71.986 
-16.214  -9.219 -75.329 
 -4.550  -1.652 -68.051 
 10.138  -8.420 -66.481 
 16.573   6.100 -69.432 
 -2.407  -9.663 -76.724 
  8.664  -4.490 -69.584 
  0.793  -9.375 -65.125 
 12.828   5.416 -74.201 
  7.747  -5.212 -70.609 
 -5.410   7.979 -72.503 
 13.086  -5.805 -65.832 
 10.277  -9.741 -72.553 
-10.881   4.957 -65.283 
 15.734   2.349 -63.997 
 -4.635  10.281 -74.524 
 -8.333   5.766 -66.044 
 -8.192   6.434 -64.926 
 -6.453 -11.954 -68.349 
 12.459  -2.264 -69.046 
 14.119  -4.622 -68.935 
 12.817   1.674 -71.433 
 13.220   4.139 -63.508 
 10.772  -2.102 -68.254 
 14.750   9.450 -73.613 
 15.608   8.181 -66.706 
  0.923  -1.119 -64.677 
  3.662  11.765 -76.846 
 -0.137  12.749 -69.839 
-13.418  12.297 -66.764 
-12.637  12.227 -68.977 
 13.233  11.595 -70.300 
-14.339  11.070 -70.614 
-11.957   5.949 -68.174 
 -5.303  -5.700 -77.144 
-16.071   5.268 -75.945 
-11.523  -4.098 -75.710 
-15.079 -10.191 -73.743 
  1.325  -8.018 -73.734 
  1.778   5.498 -69.490 
 14.701  -4.104 -72.343 
 -1.301  -0.790 -71.579 
 -5.018   6.295 -73.726 
  5.498  -7.759 -76.314 
  2.737   4.896 -74.087 
  8.729   3.595 -68.939 
 -1.040   6.387 -70.824 
 -1.091  -7.410 -67.612 
 -1.895   3.976 -61.900 
  1.704  -3.966 -75.188 
  0.194  13.194 -64.545 
 -3.998  -5.900 -67.393 
 -1.452   4.331 -63.925 
  8.941   8.608 -74.316 
 -7.380  -1.471 -72.778 
 -5.950  -0.900 -67.464 
 -3.309   3.207 -66.784 
  5.335   0.784 -65.549 
 -2.296  -2.164 -61.916 
 10.861  -5.855 -66.963 
  2.006 -10.360 -70.937 
  3.562  10.587 -75.990 
 -8.958   2.028 -63.596 
 10.663   5.369 -63.454 
 14.905  -7.216 -71.332 
 13.488   4.696 -72.937 
 -7.431  -0.283 -62.210 
-14.759  12.092 -72.945 
  6.772   9.393 -73.543 
-11.843  -8.505 -66.370 
-12.159   5.274 -68.764 
  8.059   3.345 -68.213 
 -2.431   2.330 -60.922 
-13.606  -8.520 -66.264 
-12.313   8.032 -76.055 
 -2.331  -3.171 -60.579 
  7.387   6.466 -70.061 
 -2.330  -1.628 -71.147 
 -5.101   5.378 -60.700 
 -3.494 -12.329 -65.575 
  8.079  -6.715 -63.179 
 -9.148  -2.603 -67.713 
 -4.474   0.086 -72.785 
-10.578   3.283 -63.995 
 12.533   3.974 -65.037 
 -4.578  -4.316 -69.483 
 -2.561   7.507 -66.417 
  2.319 -11.438 -70.464 
 -6.982   9.215 -65.530 
  5.016   0.496 -66.045 
 -7.356  -7.585 -64.221 
-11.085   6.220 -63.576 
 13.153  -8.457 -65.799 
 -8.754  -1.581 -63.510 
  5.380  -9.262 -62.349 
  4.410   2.917 -70.104 
  8.631  11.270 -70.891 
 -4.270   7.372 -60.826 
 -1.421  10.084 -62.321 
 14.951   8.561 -72.734 
 14.869  -9.658 -68.350 
  1.042   7.085 -68.787 
 17.011  -9.372 -70.574 
-11.384  -3.313 -64.723 
  3.763  12.465 -61.847 
-14.470  -8.373 -69.315 
 -0.079 -11.101 -70.496 
  3.164 -11.192 -62.447 
-11.223  -4.966 -66.203 
  5.017   0.617 -73.001 
 -8.901   9.997 -62.817 
  2.660  11.261 -59.956 
  9.036 -11.104 -72.071 
 -2.136   4.768 -59.544 
 13.936  -6.107 -69.907 
  3.850   9.674 -67.284 
 -1.674  -8.087 -61.618 
 16.895  10.294 -72.290 
  8.366  -3.883 -63.959 
-13.840 -12.032 -71.660 
 -2.237   2.343 -67.611 
 16.638   6.406 -64.785 
-12.939 -11.118 -66.634 
 10.717   1.703 -62.725 
 16.495  -4.907 -72.013 
 -5.098 -11.884 -62.210 
-11.179   0.169 -76.133 
  4.869  -1.285 -62.062 
 -0.766   8.738 -60.296 
  2.545 -12.935 -64.778 
 -9.886  11.486 -74.792 
 -7.408   8.572 -62.505 
 11.582  -7.514 -64.235 
-14.389 -12.195 -72.197 
  1.765 -12.217 -65.927 
 12.125   3.897 -64.400 
-13.018  -4.029 -72.194 
 -4.909  -2.877 -75.500 
  8.609  13.226 -65.396 
  7.138  -7.562 -63.057 
 -9.516  -7.139 -68.142 
 -2.555  13.352 -65.821 
 -7.367   7.065 -69.689 
 16.623   8.808 -65.627 
-13.214  -0.294 -63.306 
  8.814  -0.221 -76.212 
  4.870  10.009 -71.835 
  6.806   7.235 -58.424 
 -5.127  -6.482 -59.054 
  5.912  -0.451 -62.471 
  9.597  10.888 -69.282 
 12.226   0.330 -73.376 
 10.433   0.200 -62.471 
 15.149  -2.469 -63.820 
  8.421   3.570 -73.490 
 16.096   3.303 -64.795 
 15.355 -12.710 -74.486 
 15.563  13.227 -65.034 
  6.751   9.646 -76.901 
  7.210   4.794 -60.867 
 11.637  -0.705 -69.784 
 13.393 -12.477 -68.493 
 13.559   2.671 -71.944 
-11.788   1.119 -67.327 
 15.873  -7.896 -74.203 
 -4.757   5.483 -59.404 
  9.806   8.129 -68.076 
-11.291  -7.441 -66.578 
  4.541 -12.301 -63.486 
  4.989 -10.980 -72.229 
 16.223  -9.405 -68.840 
  4.707  -4.825 -59.351 
 17.865   3.526 -72.684 
 13.932  -5.231 -74.768 
 12.712   4.749 -72.231 
 -8.412 -10.860 -64.516 
 10.303  -0.542 -65.672 
 11.765   6.005 -64.439 
 11.977   9.706 -60.782 
 15.939   4.343 -62.671 
 13.498  -3.497 -68.311 
 -7.566  -1.174 -65.836 
 -7.300 -11.770 -62.880 
 12.688   6.223 -62.413 
 -0.163   4.553 -73.109 
 -0.676   5.893 -74.980 
 -6.258  -9.585 -65.669 
  0.128   7.514 -64.785 
-14.497  -1.966 -69.319 
  4.363   1.702 -69.100 
-15.945  -5.540 -77.455 
  7.393   2.894 -72.005 
  4.139   7.510 -73.959 
 11.958  -4.447 -70.130 
 11.700   6.949 -69.658 
 14.788   9.500 -70.025 
 10.646   5.092 -66.397 
 15.624  -6.784 -74.278 
 10.137  -9.561 -71.023 
 16.116  11.346 -66.790 
 11.933  -9.594 -64.407 
 11.331   8.199 -62.463 
  6.521  -7.376 -67.676 
 15.738  -7.616 -71.394 
 15.613  -4.396 -75.085 
-15.659   7.153 -69.297 
  7.697  -8.331 -74.347 
-10.432   3.208 -67.268 
 16.242   3.934 -70.847 
 -0.811  -7.344 -72.022 
-14.963 -10.527 -70.534 
 10.744   4.041 -69.932 
-10.880  12.166 -62.035 
  7.505  -7.297 -65.612 

 VERTICES 489 978 
1 0 
1 1 
1 2 
1 3 
1 4 
1 5 
1 6 
1 7 
1 8 
1 9 
1 10 
1 11 
1 12 
1 13 
1 14 
1 15 
1 16 
1 17 
1 18 
1 19 
1 20 
1 21 
1 22 
1 23 
1 24 
1 25 
1 26 
1 27 
1 28 
1 29 
1 30 
1 31 
1 32 
1 33 
1 34 
1 35 
1 36 
1 37 
1 38 
1 39 
1 40 
1 41 
1 42 
1 43 
1 44 
1 45 
1 46 
1 47 
1 48 
1 49 
1 50 
1 51 
1 52 
1 53 
1 54 
1 55 
1 56 
1 57 
1 58 
1 59 
1 60 
1 61 
1 62 
1 63 
1 64 
1 65 
1 66 
1 67 
1 68 
1 69 
1 70 
1 71 
1 72 
1 73 
1 74 
1 75 
1 76 
1 77 
1 78 
1 79 
1 80 
1 81 
1 82 
1 83 
1 84 
1 85 
1 86 
1 87 
1 88 
1 89 
1 90 
1 91 
1 92 
1 93 
1 94 
1 95 
1 96 
1 97 
1 98 
1 99 
1 100 
1 101 
1 102 
1 103 
1 104 
1 105 
1 106 
1 107 
1 108 
1 109 
1 110 
1 111 
1 112 
1 113 
1 114 
1 115 
1 116 
1 117 
1 118 
1 119 
1 120 
1 121 
1 122 
1 123 
1 124 
1 125 
1 126 
1 127 
1 128 
1 129 
1 130 
1 131 
1 132 
1 133 
1 134 
1 135 
1 136 
1 137 
1 138 
1 139 
1 140 
1 141 
1 142 
1 143 
1 144 
1 145 
1 146 
1 147 
1 148 
1 149 
1 150 
1 151 
1 152 
1 153 
1 154 
1 155 
1 156 
1 157 
1 158 
1 159 
1 160 
1 161 
1 162 
1 163 
1 164 
1 165 
1 166 
1 167 
1 168 
1 169 
1 170 
1 171 
1 172 
1 173 
1 174 
1 175 
1 176 
1 177 
1 178 
1 179 
1 180 
1 181 
1 182 
1 183 
1 184 
1 185 
1 186 
1 187 
1 188 
1 189 
1 190 
1 191 
1 192 
1 193 
1 194 
1 195 
1 196 
1 197 
1 198 
1 199 
1 200 
1 201 
1 202 
1 203 
1 204 
1 205 
1 206 
1 207 
1 208 
1 209 
1 210 
1 211 
1 212 
1 213 
1 214 
1 215 
1 216 
1 217 
1 218 
1 219 
1 220 
1 221 
1 222 
1 223 
1 224 
1 225 
1 226 
1 227 
1 228 
1 229 
1 230 
1 231 
1 232 
1 233 
1 234 
1 235 
1 236 
1 237 
1 238 
1 239 
1 240 
1 241 
1 242 
1 243 
1 244 
1 245 
1 246 
1 247 
1 248 
1 249 
1 250 
1 251 
1 252 
1 253 
1 254 
1 255 
1 256 
1 257 
1 258 
1 259 
1 260 
1 261 
1 262 
1 263 
1 264 
1 265 
1 266 
1 267 
1 268 
1 269 
1 270 
1 271 
1 272 
1 273 
1 274 
1 275 
1 276 
1 277 
1 278 
1 279 
1 280 
1 281 
1 282 
1 283 
1 284 
1 285 
1 286 
1 287 
1 288 
1 289 
1 290 
1 291 
1 292 
1 293 
1 294 
1 295 
1 296 
1 297 
1 298 
1 299 
1 300 
1 301 
1 302 
1 303 
1 304 
1 305 
1 306 
1 307 
1 308 
1 309 
1 310 
1 311 
1 312 
1 313 
1 314 
1 315 
1 316 
1 317 
1 318 
1 319 
1 320 
1 321 
1 322 
1 323 
1 324 
1 325 
1 326 
1 327 
1 328 
1 329 
1 330 
1 331 
1 332 
1 333 
1 334 
1 335 
1 336 
1 337 
1 338 
1 339 
1 340 
1 341 
1 342 
1 343 
1 344 
1 345 
1 346 
1 347 
1 348 
1 349 
1 350 
1 351 
1 352 
1 353 
1 354 
1 355 
1 356 
1 357 
1 358 
1 359 
1 360 
1 361 
1 362 
1 363 
1 364 
1 365 
1 366 
1 367 
1 368 
1 369 
1 370 
1 371 
1 372 
1 373 
1 374 
1 375 
1 376 
1 377 
1 378 
1 379 
1 380 
1 381 
1 382 
1 383 
1 384 
1 385 
1 386 
1 387 
1 388 
1 389 
1 390 
1 391 
1 392 
1 393 
1 394 
1 395 
1 396 
1 397 
1 398 
1 399 
1 400 
1 401 
1 402 
1 403 
1 404 
1 405 
1 406 
1 407 
1 408 
1 409 
1 410 
1 411 
1 412 
1 413 
1 414 
1 415 
1 416 
1 417 
1 418 
1 419 
1 420 
1 421 
1 422 
1 423 
1 424 
1 425 
1 426 
1 427 
1 428 
1 429 
1 430 
1 431 
1 432 
1 433 
1 434 
1 435 
1 436 
1 437 
1 438 
1 439 
1 440 
1 441 
1 442 
1 443 
1 444 
1 445 
1 446 
1 447 
1 448 
1 449 
1 450 
1 451 
1 452 
1 453 
1 454 
1 455 
1 456 
1 457 
1 458 
1 459 
1 460 
1 461 
1 462 
1 463 
1 464 
1 465 
1 466 
1 467 
1 468 
1 469 
1 470 
1 471 
1 472 
1 473 
1 474 
1 475 
1 476 
1 477 
1 478 
1 479 
1 480 
1 481 
1 482 
1 483 
1 484 
1 485 
1 486 
1 487 
1 488 
POINT_DATA 489 
SCALARS MeanU double 1 
LOOKUP_TABLE default
0.09609 
0.10187 
0.06006 
0.07311 
0.03737 
0.09687 
0.12317 
0.09831 
0.11094 
0.15907 
0.09267 
0.05247 
0.12835 
0.05086 
0.12522 
0.05226 
0.13372 
0.14174 
0.10394 
0.05269 
0.09796 
0.09288 
0.11958 
0.07023 
0.11066 
0.09483 
0.16053 
0.07981 
0.12067 
0.13037 
0.11471 
0.17553 
0.10065 
0.18767 
0.13762 
0.12704 
0.20188 
0.05118 
0.12309 
0.19220 
0.06509 
0.01304 
0.07837 
0.08987 
0.14211 
0.08565 
0.02942 
0.07415 
0.06634 
0.16384 
0.05560 
0.12220 
0.15946 
0.04566 
0.11376 
0.07546 
0.10224 
0.16638 
0.13392 
0.10772 
0.03804 
0.08868 
0.06304 
0.17902 
0.14519 
0.17539 
0.09329 
0.11972 
0.08181 
0.13274 
0.13338 
0.04369 
0.13944 
0.08566 
0.17377 
0.08163 
0.14487 
0.08020 
0.11784 
0.03329 
0.13522 
0.08796 
0.21605 
0.13176 
0.14703 
0.06789 
0.12734 
0.11457 
0.19570 
0.09884 
0.13706 
0.04136 
0.11601 
0.10583 
0.08822 
0.14470 
0.07193 
0.09288 
0.10447 
0.11268 
0.18117 
0.11346 
0.12671 
0.03601 
0.08779 
0.03141 
0.03588 
0.11131 
0.21009 
0.14386 
0.14462 
0.04228 
0.04034 
0.18993 
0.18793 
0.08783 
0.14194 
0.11639 
0.04141 
0.15175 
0.13652 
0.17801 
0.17894 
0.04953 
0.10913 
0.02662 
0.02605 
0.10958 
0.16234 
0.08951 
0.12577 
0.10933 
0.10708 
0.11358 
0.06381 
0.08823 
0.02140 
0.05689 
0.20353 
0.05217 
0.13875 
0.05811 
0.07263 
0.08029 
0.08624 
0.08152 
0.11024 
0.09399 
0.16285 
0.10191 
0.13583 
0.06772 
0.11627 
0.17412 
0.06253 
0.05482 
0.11206 
0.08455 
0.09758 
0.08082 
0.16106 
0.12889 
0.13038 
0.08926 
0.15087 
0.15227 
0.21732 
0.13595 
0.11257 
0.08297 
0.03320 
0.18639 
0.16889 
0.03467 
0.03803 
0.10845 
0.17801 
0.03873 
0.09104 
0.08130 
0.11742 
0.19083 
0.14026 
0.08292 
0.08930 
0.11621 
0.06116 
0.06127 
0.16535 
0.12741 
0.14104 
0.06559 
0.20534 
0.12928 
0.14242 
0.11742 
0.02903 
0.04540 
0.18301 
0.22362 
0.17491 
0.09176 
0.05549 
0.11368 
0.04979 
0.11506 
0.14909 
0.12443 
0.14650 
0.09348 
0.10254 
0.09262 
0.17813 
0.05469 
0.05772 
0.16799 
0.06016 
0.03974 
0.06346 
0.04028 
0.18036 
0.11058 
0.09951 
0.18211 
0.07302 
0.15029 
0.05194 
0.05948 
0.16305 
0.10001 
0.09348 
0.14695 
0.08732 
0.14937 
0.01404 
0.05711 
0.15157 
0.16333 
0.08370 
0.05730 
0.10289 
0.06405 
0.08076 
0.14110 
0.11538 
0.10461 
0.11859 
0.10509 
0.04256 
0.20010 
0.14527 
0.12871 
0.15067 
0.05836 
0.18333 
0.11263 
0.10941 
0.11683 
0.10734 
0.10955 
0.07260 
0.05859 
0.10128 
0.13264 
0.03148 
0.11663 
0.06700 
0.15139 
0.11194 
0.06644 
0.05716 
0.08760 
0.19614 
0.13773 
0.18459 
0.08934 
0.18521 
0.10534 
0.06027 
0.09926 
0.09239 
0.10401 
0.23763 
0.07814 
0.06746 
0.07966 
0.11822 
0.08647 
0.09644 
0.10440 
0.10685 
0.12411 
0.09060 
0.22180 
0.09754 
0.10179 
0.09177 
0.13036 
0.08324 
0.12401 
0.16893 
0.15054 
0.09681 
0.02490 
0.03656 
0.08347 
0.10552 
0.06555 
0.07108 
0.12134 
0.07681 
0.05425 
0.10763 
0.09169 
0.07933 
0.04735 
0.11598 
0.05587 
0.08700 
0.10083 
0.10983 
0.11275 
0.21581 
0.09955 
0.04925 
0.10409 
0.18827 
0.17994 
0.14698 
0.04828 
0.16565 
0.16913 
0.13382 
0.20251 
0.07208 
0.07162 
0.06749 
0.07402 
0.14401 
0.08185 
0.12506 
0.10534 
0.08124 
0.11432 
0.09782 
0.07594 
0.07992 
0.17408 
0.17538 
0.05285 
0.21453 
0.10918 
0.11060 
0.15022 
0.14756 
0.11448 
0.08329 
0.07716 
0.10256 
0.08940 
0.11994 
0.12377 
0.05924 
0.14523 
0.12130 
0.10232 
0.16223 
0.13000 
0.09694 
0.13048 
0.08811 
0.15724 
0.12143 
0.11384 
0.12569 
0.04871 
0.08744 
0.10598 
0.16980 
0.13049 
0.06719 
0.12779 
0.18186 
0.19918 
0.08653 
0.14504 
0.12217 
0.04402 
0.11159 
0.10517 
0.15706 
0.17701 
0.15735 
0.10061 
0.15901 
0.22789 
0.06635 
0.08518 
0.17327 
0.12176 
0.14078 
0.04088 
0.12468 
0.11464 
0.08792 
0.07104 
0.15325 
0.11791 
0.18745 
0.23779 
0.09178 
0.13174 
0.02513 
0.10614 
0.06822 
0.16244 
0.30261 
0.15976 
0.17195 
0.09359 
0.09168 
0.09256 
0.10377 
0.11118 
0.10535 
0.07223 
0.05164 
0.16841 
0.17389 
0.14173 
0.08391 
0.07239 
0.04075 
0.15680 
0.17565 
0.07299 
0.06126 
0.12951 
0.07021 
0.12707 
0.13790 
0.13513 
0.10810 
0.05253 
0.03709 
0.07838 
0.17649 
0.10371 
0.06647 
0.16700 
0.15635 
0.11532 
0.08347 
0.20285 
0.11404 
0.11546 
0.18806 
0.14157 
0.12903 
0.07750 
0.09113 
0.16519 
0.07996 
0.04373 
0.10935 
0.10031 
0.12563 
0.08540 
0.03780 
0.13092 
0.14774 
0.13963 
0.10451 
0.06662 
0.07814 
0.19851 
0.12380 
0.11167 
0.09084 
0.12691 
0.03866 
0.05891 
0.12017 
0.13603 
0.06048 
0.16014 
0.10462 
0.14265 
0.21997 

 VECTORS Umean float 
-0.00500 0.05300 -0.08000 
-0.00900 0.07200 -0.07150 
-0.00350 -0.02500 -0.05450 
-0.03800 0.01900 -0.05950 
-0.03200 0.01650 -0.01000 
-0.02150 0.07750 -0.05400 
0.02350 0.06250 -0.10350 
0.05000 0.02100 -0.08200 
0.02250 0.08350 -0.06950 
0.02800 0.14400 -0.06150 
-0.06600 0.04650 -0.04550 
-0.03700 -0.02450 -0.02800 
-0.03050 0.10450 -0.06800 
-0.01000 0.00600 -0.04950 
0.07100 0.10300 0.00550 
-0.05100 0.00550 -0.01000 
0.03650 0.12850 -0.00600 
-0.01100 0.12100 -0.07300 
0.05850 0.06600 -0.05500 
0.00450 0.03400 -0.04000 
0.01750 0.03700 -0.08900 
-0.06400 0.06700 0.00650 
-0.00200 0.09800 -0.06850 
0.02000 0.06650 0.01050 
-0.00600 0.11000 -0.01050 
0.02350 0.08750 -0.02800 
0.01550 0.14000 -0.07700 
-0.06750 -0.04100 -0.01150 
-0.02700 0.06650 -0.09700 
-0.10500 0.05850 -0.05050 
-0.07400 0.06700 -0.05650 
-0.00300 0.16050 -0.07100 
0.04500 0.08800 -0.01900 
-0.01450 0.16000 -0.09700 
-0.02900 0.12300 -0.05450 
-0.05600 0.03350 -0.10900 
0.14850 0.13650 -0.00850 
-0.04800 0.01500 -0.00950 
0.02350 0.10400 0.06150 
-0.02900 0.19000 0.00050 
-0.00300 0.02250 -0.06100 
0.00500 0.01200 0.00100 
-0.02250 0.05000 0.05600 
0.02250 0.05100 -0.07050 
0.01550 0.09450 0.10500 
0.02300 0.05500 -0.06150 
-0.01450 0.02500 -0.00550 
0.06000 0.03700 -0.02300 
-0.03000 0.02050 -0.05550 
0.01200 0.15950 -0.03550 
-0.05300 0.00850 -0.01450 
-0.02000 0.10900 -0.05150 
0.03150 0.15000 -0.04400 
0.01550 0.01800 -0.03900 
-0.03800 0.09800 -0.04350 
-0.01300 -0.00700 -0.07400 
0.05150 0.08500 0.02400 
0.01100 0.16600 0.00250 
0.01800 0.07850 0.10700 
0.03150 0.06550 0.07950 
0.03100 -0.00150 -0.02200 
-0.01600 0.04850 0.07250 
-0.05400 0.00150 -0.03250 
0.08500 0.10150 -0.12050 
0.08050 0.12050 -0.00900 
0.02200 0.16100 -0.06600 
0.03800 0.07650 -0.03750 
-0.00950 0.11900 0.00900 
0.02900 0.07650 0.00050 
-0.01300 0.13050 -0.02050 
0.08200 0.09600 0.04300 
0.01650 0.02600 -0.03100 
-0.12650 -0.03300 -0.04850 
0.01400 0.05150 -0.06700 
0.00200 0.17050 -0.03350 
0.01200 0.07300 -0.03450 
0.03650 0.13950 -0.01400 
-0.02950 -0.00350 -0.07450 
0.00700 0.11400 -0.02900 
-0.00400 0.03250 -0.00600 
0.00150 0.12900 -0.04050 
0.04250 0.04500 -0.06250 
0.10450 0.18250 -0.04950 
0.02200 0.07650 -0.10500 
-0.08700 0.00250 -0.11850 
-0.02800 0.03900 -0.04800 
-0.02950 0.09150 -0.08350 
0.01550 0.11200 0.01850 
0.03250 0.18900 -0.03900 
-0.06200 0.01500 -0.07550 
0.05000 0.08350 -0.09650 
0.01450 0.03800 0.00750 
0.03900 0.10800 0.01650 
0.02550 0.08300 0.06050 
-0.04000 0.04350 -0.06550 
0.02750 0.12900 -0.05950 
-0.04050 -0.01300 -0.05800 
0.03200 0.03350 -0.08050 
0.02200 0.09950 0.02300 
-0.04450 0.00200 -0.10350 
0.04750 0.15250 -0.08550 
0.03100 0.10700 -0.02150 
0.01250 0.12450 0.02000 
0.01200 -0.02450 -0.02350 
0.01150 0.07650 -0.04150 
-0.01550 0.01550 -0.02250 
0.02100 0.01400 -0.02550 
0.03400 0.09150 -0.05350 
0.08250 0.15850 -0.11050 
0.00950 0.10150 0.10150 
-0.00950 0.13300 -0.05600 
0.03400 0.01300 0.02150 
0.02750 -0.02650 -0.01300 
0.06150 0.10750 0.14400 
0.12200 0.10500 -0.09700 
-0.06250 0.04900 -0.03750 
-0.05800 0.10150 -0.08050 
0.01450 0.05600 -0.10100 
-0.03200 0.02450 -0.00950 
-0.02500 0.10150 -0.11000 
0.09400 0.09900 0.00100 
0.06800 0.15450 -0.05650 
0.05950 0.14750 -0.08200 
-0.02250 0.04150 -0.01500 
-0.02050 0.05500 -0.09200 
0.00050 0.02650 0.00250 
-0.00350 0.02400 0.00950 
0.03200 0.10350 0.01650 
0.04450 0.09550 -0.12350 
-0.03350 0.07100 -0.04300 
-0.05150 0.11450 -0.00750 
0.03100 0.03450 -0.09900 
0.05500 0.07000 -0.05950 
-0.01350 0.10950 -0.02700 
-0.00800 -0.01500 -0.06150 
0.04850 0.04350 0.05950 
-0.00400 -0.00100 -0.02100 
0.01050 0.04550 -0.03250 
0.01000 0.20050 -0.03350 
0.02400 -0.01100 -0.04500 
0.02950 0.13550 0.00450 
0.02350 0.03500 -0.04000 
-0.02900 -0.01200 -0.06550 
-0.04650 0.05400 -0.03700 
0.03150 0.07800 0.01900 
0.03050 0.07500 -0.00950 
0.08450 0.05700 -0.04200 
0.00850 0.08850 0.03050 
0.08400 0.13350 -0.04050 
-0.08600 0.00450 -0.05450 
-0.07600 0.10650 -0.03650 
0.00250 0.02200 -0.06400 
0.01200 0.05450 -0.10200 
0.10900 0.07750 0.11150 
-0.02600 0.00650 -0.05650 
-0.00800 -0.05300 0.01150 
0.02950 0.09450 -0.05250 
0.05850 0.05750 0.02050 
0.01050 0.09700 0.00150 
-0.03000 -0.05850 -0.04700 
-0.04900 0.03450 -0.14950 
0.00450 0.11600 -0.05600 
0.04850 0.11350 -0.04200 
-0.04900 0.05200 -0.05350 
-0.02200 0.14850 -0.01500 
-0.04300 0.13650 -0.05200 
0.15750 0.04750 -0.14200 
0.08250 0.10600 -0.02100 
0.05550 0.08000 -0.05650 
0.07150 -0.02550 -0.03350 
-0.01700 0.00100 -0.02850 
0.06800 0.17350 -0.00400 
0.03300 0.16200 -0.03450 
-0.00800 0.03300 -0.00700 
0.01200 -0.00650 0.03550 
0.05150 0.07800 -0.05500 
0.05400 0.16950 -0.00650 
0.00300 0.03850 -0.00300 
-0.00850 -0.00500 -0.09050 
-0.02100 0.05350 -0.05750 
-0.03350 0.11200 -0.01100 
-0.01000 0.13400 -0.13550 
-0.02100 0.12550 -0.05900 
0.01750 0.08000 0.01300 
0.04350 0.05900 0.05100 
-0.02550 0.10700 -0.03750 
0.00350 0.02850 -0.05400 
-0.04150 0.04500 0.00250 
0.03100 0.11000 -0.11950 
-0.05600 0.02350 -0.11200 
0.03550 0.13550 -0.01650 
0.05400 0.01400 0.03450 
0.04550 0.19650 -0.03850 
0.04000 0.10000 -0.07150 
0.00350 0.13350 -0.04950 
-0.07600 -0.00100 -0.08950 
-0.00800 0.01650 -0.02250 
-0.00000 -0.00600 -0.04500 
0.10750 0.12300 0.08250 
0.09950 0.18800 -0.06900 
0.05200 0.16700 -0.00100 
-0.01550 0.08950 0.01300 
0.00500 0.03650 -0.04150 
-0.05200 0.07700 -0.06550 
0.03800 0.02250 -0.02300 
-0.06050 0.09300 -0.03050 
0.08250 0.11900 -0.03550 
-0.04150 0.08850 -0.07700 
-0.04250 0.13550 -0.03600 
0.03450 0.08350 -0.02400 
-0.04550 0.08650 -0.03100 
-0.05050 -0.01000 -0.07700 
-0.03500 0.17300 0.02400 
0.03300 0.03950 0.01850 
-0.02000 0.00400 -0.05400 
0.03050 0.06700 0.15100 
-0.01150 0.05900 0.00250 
-0.03050 0.00700 -0.02450 
0.01100 0.05750 -0.02450 
0.01850 0.01950 0.03000 
-0.02750 0.17800 0.00950 
0.04350 0.09450 0.03750 
-0.03900 0.07000 -0.05900 
0.14650 0.10650 0.01900 
0.03450 0.03500 0.05400 
-0.00650 0.01400 -0.14950 
-0.02300 0.02300 -0.04050 
0.00400 0.04600 -0.03750 
-0.05050 0.03050 -0.15200 
0.04850 0.08700 -0.00900 
-0.03600 0.01150 -0.08550 
0.03700 0.06300 0.12750 
-0.04550 0.07450 0.00200 
0.03650 0.11800 0.08400 
0.00850 0.00500 0.01000 
0.04300 0.03400 -0.01600 
0.08550 0.10900 0.06150 
0.01900 0.15150 0.05800 
0.04500 0.06850 0.01700 
0.05150 0.01300 -0.02150 
-0.06450 0.02050 -0.07750 
-0.04900 0.04100 0.00450 
0.00800 0.07700 -0.02300 
-0.02450 0.02600 -0.13650 
0.03150 0.08850 -0.06700 
0.00450 0.09900 0.03350 
0.03500 0.09350 -0.06400 
-0.01300 0.08700 -0.05750 
-0.03350 0.02000 0.01700 
0.05800 0.15950 -0.10600 
0.03150 0.12850 -0.06000 
-0.08800 -0.04300 -0.08350 
0.02750 0.09400 -0.11450 
-0.03900 -0.03400 -0.02700 
0.06200 0.16600 -0.04700 
-0.03250 0.10750 -0.00850 
-0.04550 0.08900 -0.04450 
0.03100 0.11200 0.01200 
0.03550 0.09450 -0.03650 
-0.04800 -0.05300 -0.08300 
0.02250 0.06850 -0.00850 
-0.01950 0.02000 -0.05150 
0.03550 0.09250 -0.02100 
-0.06000 0.08850 -0.07850 
0.01800 -0.01750 -0.01900 
0.00850 0.10550 0.04900 
-0.01150 0.03650 -0.05500 
0.05350 0.11950 -0.07600 
-0.02550 0.10900 -0.00050 
0.04550 0.01350 -0.04650 
-0.03850 0.02700 -0.03250 
0.03400 0.07150 0.03750 
-0.05350 0.11250 -0.15150 
0.03350 0.13350 -0.00500 
0.05650 0.12600 -0.12250 
-0.03850 0.05650 -0.05750 
-0.08450 0.02750 -0.16250 
0.05550 0.08950 0.00250 
0.01600 0.05600 0.01550 
-0.00900 0.04600 -0.08750 
0.07400 0.05400 -0.01200 
0.04650 0.04300 -0.08250 
0.08750 0.13550 -0.17450 
-0.02550 0.03600 -0.06450 
-0.00450 0.01550 -0.06550 
-0.00000 0.07250 -0.03300 
-0.01050 0.11400 -0.02950 
-0.05400 0.06750 0.00200 
0.00650 0.06150 -0.07400 
0.03600 0.09800 -0.00000 
-0.04850 0.05600 -0.07700 
0.03200 0.09150 -0.07750 
0.00300 0.09050 -0.00300 
0.07700 0.18800 -0.08900 
0.02350 0.08100 -0.04900 
0.04550 0.07100 -0.05700 
-0.01000 0.06400 -0.06500 
0.02000 0.12800 -0.01450 
0.05500 0.04800 -0.04000 
-0.01350 0.05150 -0.11200 
-0.03750 0.02000 -0.16350 
0.05550 0.13250 -0.04500 
-0.00050 0.02100 -0.09450 
-0.00200 0.02350 -0.00800 
-0.00350 -0.03550 0.00800 
-0.06450 -0.04400 -0.02950 
-0.04950 0.05100 -0.07800 
-0.04450 0.00350 -0.04800 
-0.06600 -0.02600 -0.00450 
0.06150 0.00450 0.10450 
-0.04700 -0.05900 -0.01450 
-0.01750 -0.04750 -0.01950 
-0.02550 0.06850 -0.07900 
0.03600 0.07450 -0.03950 
0.00300 0.05850 -0.05350 
0.00500 0.03150 -0.03500 
0.06950 0.07250 -0.05800 
0.00200 0.03500 -0.04350 
-0.00200 0.06100 -0.06200 
-0.04800 0.03250 -0.08250 
0.01800 0.09450 -0.05300 
-0.00400 0.05900 -0.09600 
0.04850 0.19300 -0.08350 
0.04300 0.08350 -0.03300 
-0.01850 0.01900 -0.04150 
0.00050 0.10300 -0.01500 
0.06500 0.13500 0.11400 
0.03600 0.16700 -0.05650 
-0.06900 0.02900 -0.12650 
0.03000 0.02700 0.02650 
0.02450 0.15900 -0.03950 
-0.00750 0.16300 -0.04450 
0.08150 0.10600 0.00550 
0.09450 0.14250 -0.10850 
0.01450 0.06800 -0.01900 
0.05150 0.04600 0.01900 
-0.03350 -0.01550 -0.05650 
0.02200 0.06700 0.02250 
0.05250 0.12650 -0.04450 
-0.01800 0.07400 -0.03000 
-0.03300 0.04950 -0.11000 
0.03100 0.09150 0.04200 
-0.07250 -0.00350 -0.03650 
-0.07100 0.07150 -0.05400 
0.05550 0.00300 0.08050 
-0.05350 -0.05350 0.00650 
0.00350 0.07200 -0.03450 
0.02600 0.14150 -0.09800 
-0.07400 -0.07350 -0.14100 
-0.04300 -0.02850 0.01150 
0.06000 0.15200 -0.13900 
-0.09050 0.04700 -0.03900 
0.04500 0.09950 -0.01750 
0.00650 0.12300 -0.08600 
0.07550 0.06800 -0.10700 
0.09050 0.02500 -0.06550 
0.02300 0.06000 0.05300 
0.01800 0.07500 -0.00200 
0.03100 0.07600 -0.06150 
-0.00600 0.07550 -0.04750 
0.01200 0.07950 0.08900 
-0.03800 0.11350 0.03150 
0.02350 0.04600 0.02900 
-0.00550 0.13000 -0.06450 
0.07500 0.09200 -0.02500 
0.03300 0.04550 -0.08550 
0.01350 0.12250 -0.10550 
0.06700 0.11100 -0.00950 
0.05950 0.07250 0.02450 
-0.03450 0.10950 -0.06200 
-0.00200 0.06800 -0.05600 
-0.09650 -0.02550 -0.12150 
0.02150 0.11850 0.01550 
-0.02550 0.10050 -0.04700 