# vtk DataFile Version 2.0 
Xm, Ym, Zm, Uvecs, timestep 10178 
ASCII 
 
DATASET POLYDATA POINTS 452 float 
  0.833   6.626 -69.863 
  2.240   9.826 -71.560 
 -7.031   7.681 -70.597 
  2.781   5.206 -70.913 
 -0.869  -0.432 -74.736 
  4.697  -5.479 -71.479 
  5.673  -0.618 -66.612 
  3.946   3.784 -70.280 
  0.240   4.905 -68.670 
  1.995   3.113 -69.923 
 -0.521  -9.021 -71.785 
  0.961   2.501 -73.474 
 -8.060   9.137 -70.466 
  7.474   3.833 -70.799 
  8.536   6.925 -70.464 
 -1.151   6.157 -71.298 
  1.996   7.127 -69.608 
  2.589  -7.217 -70.492 
 -3.678  -7.819 -70.315 
  3.649  10.133 -67.141 
  3.899   1.917 -69.605 
 -1.644  -2.433 -72.702 
 -5.229   7.133 -67.135 
 -1.678   4.083 -77.176 
 -1.970  -3.460 -69.742 
  4.777   3.644 -74.362 
  2.264   6.086 -68.604 
  3.138  -5.166 -73.304 
 -4.632  -7.873 -69.749 
  0.664  -2.588 -66.380 
  1.738   0.118 -71.773 
 -9.852  11.900 -71.370 
  7.896  -0.623 -70.970 
 -0.083  -4.632 -71.935 
-11.478  -3.927 -64.975 
 -6.292   4.412 -72.526 
  9.256   3.187 -73.947 
  5.665  10.570 -67.894 
  3.014  -4.644 -69.742 
  0.134   2.082 -69.028 
 -9.148  -6.103 -69.338 
 -7.287  -3.834 -67.038 
 10.963   3.596 -68.911 
 10.268   7.459 -69.933 
 -7.128   8.714 -64.329 
  3.873  -6.827 -70.179 
 -6.428  10.889 -66.999 
 -1.430  10.496 -72.416 
-10.561 -12.062 -72.562 
 -5.825  -5.813 -72.194 
  4.726  -0.154 -62.283 
  1.349  -8.303 -65.919 
  7.530  -9.729 -74.647 
  0.871  -3.558 -76.462 
 -5.431   7.001 -64.697 
-10.576  -2.515 -66.793 
  3.745   7.332 -70.508 
 -2.685  -2.212 -65.118 
 -4.912  -1.399 -64.357 
  2.695   6.360 -64.181 
  0.653   2.821 -67.518 
  0.229  -4.321 -68.775 
  0.905  -7.479 -69.934 
 12.636  -3.534 -67.822 
 -1.921  -7.219 -67.734 
-11.980   6.204 -70.728 
 -4.350   3.707 -64.161 
  3.354 -11.209 -68.424 
 -7.807   8.724 -74.357 
 -0.190 -10.420 -68.729 
  8.925 -11.515 -69.131 
 -3.603   5.311 -66.732 
  6.975   6.883 -70.621 
  0.124  -4.876 -68.022 
-11.744   4.944 -68.575 
 -6.051  -1.876 -64.584 
 -3.497  -3.974 -67.822 
  8.239   1.329 -63.918 
 -0.264   6.048 -62.821 
 -1.460  -9.207 -70.108 
  3.961   2.312 -67.692 
  7.725   1.093 -74.425 
 -3.812   5.080 -64.113 
 -3.443 -12.612 -69.441 
  1.564   6.657 -69.647 
 -8.680  -4.475 -66.515 
 -2.843  -7.984 -61.493 
 -5.940  -5.194 -67.369 
 14.477   5.527 -68.447 
 -6.996  12.296 -64.836 
 14.439   2.802 -73.748 
 -6.486 -10.537 -72.880 
 -2.369   9.649 -74.278 
  4.059  -8.960 -64.657 
 -4.764  -6.909 -74.468 
 -8.015   2.768 -67.122 
 -0.734   5.813 -68.721 
  2.604   0.075 -64.933 
 -5.591  11.745 -71.446 
-11.475  11.249 -70.130 
 -1.200 -12.741 -69.489 
  9.007  -7.431 -72.236 
 -0.687   3.025 -62.384 
  8.287   6.594 -67.366 
  0.686   9.332 -77.755 
 -9.518   9.427 -67.804 
 -7.290  10.999 -72.963 
 -3.850   7.386 -65.091 
  1.738  -4.821 -72.928 
-11.552  -0.582 -69.834 
 -0.099   1.894 -60.941 
  2.764  10.947 -68.849 
 11.812   1.069 -64.599 
  7.613  -4.148 -65.574 
 12.849  -5.102 -70.182 
-11.538   1.479 -63.049 
 -1.479   7.348 -64.651 
 -0.493   4.850 -58.864 
 -0.894  -0.840 -65.591 
  7.308   9.902 -66.932 
 -4.059   0.709 -62.231 
 -1.253  -2.853 -63.293 
 13.847   0.472 -68.090 
  4.347   1.287 -61.108 
  1.996  -6.039 -66.315 
  2.382  10.006 -75.349 
  0.334   3.920 -71.779 
  7.934   4.884 -63.727 
  3.615  -0.992 -65.721 
 13.446  10.905 -72.657 
 -1.186   6.079 -73.197 
-12.911   4.166 -69.273 
 -0.616   0.529 -72.507 
  5.081   6.517 -62.651 
 -7.073   5.754 -72.862 
  4.806  -8.464 -63.453 
  4.213   5.398 -75.823 
  7.732   6.748 -70.421 
  8.632 -10.282 -63.153 
 -9.390   4.406 -70.667 
 10.122  10.033 -68.453 
 -4.004  12.293 -71.549 
 10.343   7.152 -74.264 
 10.779   4.572 -66.040 
  5.175  -5.591 -62.933 
 -2.877  10.113 -65.247 
  4.408 -13.166 -66.382 
 15.730   1.216 -68.067 
-12.176  -6.324 -70.517 
-13.791   5.388 -74.849 
  2.043  -4.688 -71.463 
  7.251  -9.258 -64.520 
 -2.117   8.263 -72.856 
  7.130  -3.619 -61.910 
-12.651   9.570 -69.527 
 11.448   8.623 -70.897 
  5.800  -0.958 -64.398 
 12.874  -5.229 -68.842 
 16.224   7.490 -70.785 
 15.209   5.348 -69.602 
 -5.036  -8.976 -61.971 
 15.468  -3.825 -69.530 
  7.584   2.494 -63.153 
 -4.995  -2.037 -72.710 
  4.662   2.500 -67.045 
 -6.140  -1.827 -66.013 
 -7.036   6.444 -68.331 
 11.464 -10.425 -73.370 
  3.691   0.508 -72.034 
 -4.107 -10.647 -63.712 
 -1.994   6.091 -74.237 
 -6.588   4.934 -68.038 
 15.541   9.162 -69.959 
  1.775   5.722 -71.541 
-10.706   7.914 -66.334 
 11.064  -1.469 -65.784 
 13.651   5.939 -72.416 
 10.070   9.494 -70.566 
  9.671  -8.697 -61.695 
  0.323  -9.643 -61.621 
  7.251  -6.489 -65.523 
-11.110  12.756 -68.676 
  3.724   7.266 -65.119 
-14.319  -5.947 -69.692 
 -9.468  -1.518 -61.602 
 -4.621   6.188 -75.315 
  6.941   2.558 -62.903 
 -6.527 -10.375 -68.100 
  6.559  -8.087 -71.748 
  3.915   5.899 -65.623 
  3.425  -9.302 -71.916 
-10.288   0.579 -62.837 
 13.994   6.100 -62.446 
  6.768  -1.047 -65.111 
  4.450  12.438 -70.049 
  5.603  -0.906 -74.397 
  5.523  10.863 -63.480 
  8.934  10.518 -65.540 
  8.233  -1.917 -71.792 
 12.390 -10.094 -73.117 
  6.739   0.084 -64.960 
 11.701   5.768 -72.684 
  5.405 -10.251 -72.138 
 13.619  -4.070 -73.487 
  3.928  -2.658 -61.308 
 -8.248  -0.475 -75.517 
  6.219  12.190 -62.325 
 -7.230  10.460 -68.132 
  5.736   1.759 -66.160 
  5.897   2.280 -62.769 
  9.495   8.849 -66.549 
 11.587 -11.964 -73.543 
 -7.558   8.197 -75.492 
  8.194  -8.089 -63.588 
  5.128 -11.835 -77.218 
  3.548   3.271 -62.936 
  8.100 -12.512 -70.551 
  0.676   6.275 -72.888 
 -9.165   1.041 -61.008 
  7.440   9.161 -65.452 
  0.690   2.661 -64.326 
  7.198   8.940 -65.653 
-12.663  -2.830 -77.305 
  5.837   5.051 -64.234 
-12.163   2.034 -63.962 
  2.824  -7.663 -63.772 
 -9.846  11.452 -64.936 
 -9.470  -3.886 -68.246 
-10.378   4.467 -62.070 
 -7.055  -4.151 -63.551 
 -6.937  10.602 -62.681 
 15.788   7.441 -71.132 
 -9.587   8.374 -64.138 
 -7.956   4.761 -61.112 
  2.932 -11.332 -70.405 
  8.804  -9.732 -69.728 
  5.358  11.209 -66.888 
-12.618   4.416 -66.683 
 -0.240   1.003 -61.918 
  8.807 -13.013 -68.770 
  2.489  -0.981 -74.576 
 -2.591  -0.710 -71.182 
  5.997  -9.729 -73.511 
 12.296   1.882 -66.441 
  3.716  -4.133 -64.453 
  5.117  -5.641 -74.242 
 -2.206   0.390 -67.515 
 -1.513   9.438 -71.029 
  8.306   7.110 -65.352 
 -9.819 -11.390 -75.880 
 11.802   2.606 -65.445 
 -1.260   0.722 -71.803 
 12.724  -0.526 -73.287 
 11.333   7.245 -71.865 
 -9.106  10.822 -73.987 
 11.721   4.091 -64.579 
  1.075  -2.545 -64.641 
  9.741   0.003 -71.234 
 14.087  11.358 -70.745 
 10.218   6.255 -62.026 
  5.827  -1.222 -68.888 
-11.018  -7.950 -68.020 
  7.024  -5.630 -69.107 
 -8.766  -7.143 -70.522 
 12.141   8.912 -66.891 
 -6.435  11.445 -78.185 
-11.073  12.123 -72.425 
  6.465   6.059 -68.931 
 -8.761  -9.093 -70.290 
  3.934  10.965 -64.171 
  7.216 -12.696 -73.785 
 13.145   8.930 -68.308 
  9.032   1.640 -72.329 
 -2.485  -1.503 -65.900 
 13.843 -10.323 -70.722 
 -3.309  -6.155 -69.504 
 -2.757  -1.509 -63.686 
 -9.520   7.024 -68.470 
 -8.211   0.617 -64.719 
  2.498  -2.664 -72.650 
  0.265  -6.678 -66.608 
  9.908 -11.140 -69.650 
  6.896   5.840 -71.719 
 -0.587  -5.604 -70.959 
  1.449  -4.341 -68.740 
 -7.795   7.672 -69.583 
  3.910   6.456 -69.875 
 -9.790   4.812 -69.322 
 -7.606  -7.063 -69.758 
 -8.413   3.876 -72.898 
 -7.143   6.066 -70.010 
 -3.275  -8.944 -68.701 
  0.554  -8.893 -71.433 
  6.794  12.197 -70.001 
-12.511   6.037 -73.589 
 -4.638  -4.487 -59.840 
  6.755  -4.611 -68.228 
 12.666  -8.861 -64.284 
 -6.781   6.644 -59.060 
 -1.071 -12.095 -70.011 
-12.791  -6.812 -70.102 
 -0.838  -6.789 -65.595 
 13.280  -5.591 -72.974 
  2.332   8.590 -74.423 
-15.601   5.351 -75.220 
  0.601   9.205 -70.554 
  4.499   4.457 -64.102 
-10.711  -8.982 -66.901 
  0.595   3.178 -67.088 
 -7.553 -11.119 -62.032 
-11.026  -4.761 -60.376 
-10.594   6.672 -63.916 
 -1.585 -11.907 -69.174 
 -9.424  -6.185 -61.463 
 10.119  -6.200 -67.341 
 -4.778 -12.458 -69.548 
 -5.855   2.948 -59.766 
 12.755  -6.595 -62.785 
 -1.577   3.035 -67.416 
 13.583   6.066 -70.511 
 -5.402   2.511 -73.945 
  1.535  -0.190 -62.736 
-11.282   9.227 -69.874 
  0.399   8.360 -63.685 
 10.458  -0.424 -71.154 
 -1.361   4.322 -70.922 
 -1.241   3.370 -74.188 
  3.934  -5.251 -66.683 
 12.081   9.287 -63.971 
  0.035 -11.095 -67.579 
  8.055  -8.367 -71.640 
  7.122   1.510 -68.538 
 -0.457   6.921 -59.891 
 16.694  -2.547 -69.304 
  0.005 -10.155 -67.203 
  0.370  -2.521 -62.679 
-11.315  -3.724 -73.438 
 13.012   2.840 -73.163 
  9.371  -4.771 -72.958 
  6.858  12.126 -68.168 
-14.982  11.515 -75.772 
 -3.729   2.782 -74.198 
 -5.370   1.886 -64.609 
 -5.519   6.325 -61.522 
  0.403 -11.434 -65.990 
-13.632 -10.908 -69.422 
  3.909  -0.223 -59.022 
-12.711  -8.493 -64.734 
-10.064   4.703 -71.477 
  8.505  -5.679 -61.108 
  5.707   8.908 -61.532 
  7.049  10.774 -69.190 
 -8.180 -10.677 -59.212 
 -4.156  -4.216 -71.508 
-11.485   5.595 -66.299 
 -9.815  -2.061 -74.151 
 -9.958  -9.155 -63.043 
 -2.468   3.382 -63.658 
  9.701  -3.915 -64.191 
 -1.136 -11.647 -66.037 
 -2.719  -8.284 -68.392 
 10.458  -2.529 -62.295 
 -8.816  -1.170 -67.280 
 10.573  -3.134 -74.394 
 -2.440   7.083 -73.769 
 12.331  10.680 -66.713 
-13.569  -4.379 -63.536 
  7.682  -1.992 -71.835 
  3.245 -12.147 -60.330 
 -8.079   1.528 -61.460 
 -7.044  -1.609 -76.785 
-12.878 -11.442 -70.642 
  1.617  -1.490 -64.715 
 13.250  -5.384 -73.008 
-10.448 -12.449 -65.593 
 13.603  -6.284 -69.797 
 12.697   0.049 -72.615 
 10.596  -0.532 -59.028 
  3.383  -1.203 -74.283 
 17.752  -8.542 -67.406 
 11.588  -4.287 -64.063 
 -2.167  11.183 -60.448 
 16.081   0.051 -65.516 
  5.137  -2.862 -59.531 
 10.877  -8.589 -72.632 
 -4.853   1.571 -65.233 
  6.806 -11.747 -65.109 
 14.109  12.926 -67.903 
 -1.340   1.240 -60.252 
-13.635   5.443 -69.575 
 -3.880  11.678 -70.133 
 -1.135  -9.650 -68.553 
 11.471  12.223 -64.787 
  5.164  -7.415 -73.255 
  8.980   9.360 -72.070 
 14.212  -8.225 -71.078 
 -8.582   2.447 -76.273 
 10.696  -9.095 -58.630 
 -4.519   0.394 -58.126 
 18.172  -3.974 -69.561 
 13.450 -13.364 -65.933 
 -9.654   9.004 -66.037 
 -7.379   3.598 -72.521 
  9.346   9.117 -73.082 
 10.557  -3.216 -66.339 
 -8.352 -10.566 -67.493 
 12.559  -7.148 -72.751 
  3.331   0.333 -64.427 
-14.018   0.449 -71.466 
  1.798   5.872 -63.819 
  1.258 -12.291 -60.251 
-10.895 -10.534 -63.252 
 -2.214   7.289 -68.514 
 12.155  -6.866 -60.597 
 -7.158   8.975 -71.358 
 -4.088   8.533 -67.081 
 14.495   1.271 -63.511 
  9.334   7.397 -65.914 
-14.961  -1.880 -72.495 
 -2.898   1.779 -69.764 
 14.744   2.037 -66.389 
 15.964  -7.982 -64.990 
 -0.095  11.058 -76.421 
 12.563 -10.051 -68.860 
  7.588  -6.034 -65.304 
 16.105 -11.021 -64.903 
  1.496  -0.508 -75.974 
 -5.665   8.021 -73.859 
  4.177   9.393 -69.230 
  5.057   9.491 -67.019 
 -1.299  -9.444 -63.852 
  2.544  11.197 -66.333 
 13.675   7.425 -63.276 
 13.018  13.148 -66.579 
-13.343  13.169 -64.781 
 -4.832   7.533 -65.154 
 -2.225  -2.083 -74.569 
 10.724   3.061 -70.722 
 -7.104  -3.203 -63.315 
 -3.040 -10.390 -69.773 
-12.549   3.916 -68.223 
  7.058   1.078 -69.600 
 -7.780   4.034 -65.383 
  4.486  -6.768 -71.237 
  2.029  11.712 -64.715 
 10.281 -12.704 -70.748 
  6.899  -4.033 -67.535 
 -0.080  -3.277 -68.959 
 -1.649 -12.311 -69.575 
  6.109   0.093 -64.005 
  6.883   7.101 -71.600 
  3.101  -7.021 -72.201 

 VERTICES 452 904 
1 0 
1 1 
1 2 
1 3 
1 4 
1 5 
1 6 
1 7 
1 8 
1 9 
1 10 
1 11 
1 12 
1 13 
1 14 
1 15 
1 16 
1 17 
1 18 
1 19 
1 20 
1 21 
1 22 
1 23 
1 24 
1 25 
1 26 
1 27 
1 28 
1 29 
1 30 
1 31 
1 32 
1 33 
1 34 
1 35 
1 36 
1 37 
1 38 
1 39 
1 40 
1 41 
1 42 
1 43 
1 44 
1 45 
1 46 
1 47 
1 48 
1 49 
1 50 
1 51 
1 52 
1 53 
1 54 
1 55 
1 56 
1 57 
1 58 
1 59 
1 60 
1 61 
1 62 
1 63 
1 64 
1 65 
1 66 
1 67 
1 68 
1 69 
1 70 
1 71 
1 72 
1 73 
1 74 
1 75 
1 76 
1 77 
1 78 
1 79 
1 80 
1 81 
1 82 
1 83 
1 84 
1 85 
1 86 
1 87 
1 88 
1 89 
1 90 
1 91 
1 92 
1 93 
1 94 
1 95 
1 96 
1 97 
1 98 
1 99 
1 100 
1 101 
1 102 
1 103 
1 104 
1 105 
1 106 
1 107 
1 108 
1 109 
1 110 
1 111 
1 112 
1 113 
1 114 
1 115 
1 116 
1 117 
1 118 
1 119 
1 120 
1 121 
1 122 
1 123 
1 124 
1 125 
1 126 
1 127 
1 128 
1 129 
1 130 
1 131 
1 132 
1 133 
1 134 
1 135 
1 136 
1 137 
1 138 
1 139 
1 140 
1 141 
1 142 
1 143 
1 144 
1 145 
1 146 
1 147 
1 148 
1 149 
1 150 
1 151 
1 152 
1 153 
1 154 
1 155 
1 156 
1 157 
1 158 
1 159 
1 160 
1 161 
1 162 
1 163 
1 164 
1 165 
1 166 
1 167 
1 168 
1 169 
1 170 
1 171 
1 172 
1 173 
1 174 
1 175 
1 176 
1 177 
1 178 
1 179 
1 180 
1 181 
1 182 
1 183 
1 184 
1 185 
1 186 
1 187 
1 188 
1 189 
1 190 
1 191 
1 192 
1 193 
1 194 
1 195 
1 196 
1 197 
1 198 
1 199 
1 200 
1 201 
1 202 
1 203 
1 204 
1 205 
1 206 
1 207 
1 208 
1 209 
1 210 
1 211 
1 212 
1 213 
1 214 
1 215 
1 216 
1 217 
1 218 
1 219 
1 220 
1 221 
1 222 
1 223 
1 224 
1 225 
1 226 
1 227 
1 228 
1 229 
1 230 
1 231 
1 232 
1 233 
1 234 
1 235 
1 236 
1 237 
1 238 
1 239 
1 240 
1 241 
1 242 
1 243 
1 244 
1 245 
1 246 
1 247 
1 248 
1 249 
1 250 
1 251 
1 252 
1 253 
1 254 
1 255 
1 256 
1 257 
1 258 
1 259 
1 260 
1 261 
1 262 
1 263 
1 264 
1 265 
1 266 
1 267 
1 268 
1 269 
1 270 
1 271 
1 272 
1 273 
1 274 
1 275 
1 276 
1 277 
1 278 
1 279 
1 280 
1 281 
1 282 
1 283 
1 284 
1 285 
1 286 
1 287 
1 288 
1 289 
1 290 
1 291 
1 292 
1 293 
1 294 
1 295 
1 296 
1 297 
1 298 
1 299 
1 300 
1 301 
1 302 
1 303 
1 304 
1 305 
1 306 
1 307 
1 308 
1 309 
1 310 
1 311 
1 312 
1 313 
1 314 
1 315 
1 316 
1 317 
1 318 
1 319 
1 320 
1 321 
1 322 
1 323 
1 324 
1 325 
1 326 
1 327 
1 328 
1 329 
1 330 
1 331 
1 332 
1 333 
1 334 
1 335 
1 336 
1 337 
1 338 
1 339 
1 340 
1 341 
1 342 
1 343 
1 344 
1 345 
1 346 
1 347 
1 348 
1 349 
1 350 
1 351 
1 352 
1 353 
1 354 
1 355 
1 356 
1 357 
1 358 
1 359 
1 360 
1 361 
1 362 
1 363 
1 364 
1 365 
1 366 
1 367 
1 368 
1 369 
1 370 
1 371 
1 372 
1 373 
1 374 
1 375 
1 376 
1 377 
1 378 
1 379 
1 380 
1 381 
1 382 
1 383 
1 384 
1 385 
1 386 
1 387 
1 388 
1 389 
1 390 
1 391 
1 392 
1 393 
1 394 
1 395 
1 396 
1 397 
1 398 
1 399 
1 400 
1 401 
1 402 
1 403 
1 404 
1 405 
1 406 
1 407 
1 408 
1 409 
1 410 
1 411 
1 412 
1 413 
1 414 
1 415 
1 416 
1 417 
1 418 
1 419 
1 420 
1 421 
1 422 
1 423 
1 424 
1 425 
1 426 
1 427 
1 428 
1 429 
1 430 
1 431 
1 432 
1 433 
1 434 
1 435 
1 436 
1 437 
1 438 
1 439 
1 440 
1 441 
1 442 
1 443 
1 444 
1 445 
1 446 
1 447 
1 448 
1 449 
1 450 
1 451 
POINT_DATA 452 
SCALARS MeanU double 1 
LOOKUP_TABLE default
0.12143 
0.05024 
0.10293 
0.06833 
0.17960 
0.18481 
0.13741 
0.05644 
0.07726 
0.09095 
0.13462 
0.15738 
0.12350 
0.14400 
0.20130 
0.16129 
0.06753 
0.18550 
0.05826 
0.09987 
0.12249 
0.22009 
0.07751 
0.18098 
0.20939 
0.18487 
0.15087 
0.13778 
0.14528 
0.24075 
0.18525 
0.10975 
0.13381 
0.23840 
0.17281 
0.10793 
0.14215 
0.15518 
0.20559 
0.16470 
0.12780 
0.19361 
0.09062 
0.10804 
0.21859 
0.10436 
0.12197 
0.11403 
0.18517 
0.18182 
0.14231 
0.10475 
0.12026 
0.23597 
0.09635 
0.10554 
0.04779 
0.24567 
0.17143 
0.15611 
0.17221 
0.18455 
0.26131 
0.20539 
0.08952 
0.18808 
0.01750 
0.05197 
0.11591 
0.13617 
0.07271 
0.14641 
0.11360 
0.17663 
0.12366 
0.17105 
0.16892 
0.05601 
0.04458 
0.08818 
0.14422 
0.21381 
0.10879 
0.21855 
0.13185 
0.13084 
0.17507 
0.16534 
0.16620 
0.12600 
0.22025 
0.18945 
0.17712 
0.07371 
0.14630 
0.20232 
0.11387 
0.15288 
0.23802 
0.10187 
0.08255 
0.12672 
0.05494 
0.09682 
0.12047 
0.04830 
0.20046 
0.14697 
0.25815 
0.21734 
0.12254 
0.31153 
0.15507 
0.23112 
0.19810 
0.07580 
0.12015 
0.05945 
0.18263 
0.13532 
0.13707 
0.17498 
0.09176 
0.09991 
0.14150 
0.11264 
0.18394 
0.13956 
0.08170 
0.13983 
0.14950 
0.12437 
0.34367 
0.09553 
0.21799 
0.11248 
0.20600 
0.16151 
0.07586 
0.20430 
0.04256 
0.23225 
0.19093 
0.10079 
0.12843 
0.16210 
0.06726 
0.16937 
0.17617 
0.15405 
0.19218 
0.12760 
0.15693 
0.26444 
0.17023 
0.18626 
0.16665 
0.20982 
0.23130 
0.19358 
0.08048 
0.04808 
0.09322 
0.20800 
0.09924 
0.17043 
0.07634 
0.08146 
0.25416 
0.07289 
0.17363 
0.32146 
0.15964 
0.09496 
0.19363 
0.11790 
0.20316 
0.16236 
0.17078 
0.12240 
0.17681 
0.07673 
0.14490 
0.08856 
0.27060 
0.20857 
0.07373 
0.16117 
0.15312 
0.15658 
0.25174 
0.06017 
0.17868 
0.22864 
0.24309 
0.18705 
0.10703 
0.15971 
0.10673 
0.07997 
0.20236 
0.15508 
0.11034 
0.23626 
0.17228 
0.03112 
0.17773 
0.10034 
0.09325 
0.03777 
0.08442 
0.11000 
0.17756 
0.09797 
0.10213 
0.14015 
0.08788 
0.16911 
0.10815 
0.10208 
0.07831 
0.08406 
0.21538 
0.11803 
0.13485 
0.23254 
0.08689 
0.11265 
0.09771 
0.11760 
0.12843 
0.20573 
0.12408 
0.12281 
0.08645 
0.03773 
0.08173 
0.18216 
0.11519 
0.06128 
0.27817 
0.30338 
0.12004 
0.14785 
0.24693 
0.16546 
0.23649 
0.13350 
0.12279 
0.05920 
0.11646 
0.33858 
0.32330 
0.12869 
0.13741 
0.06356 
0.16676 
0.18623 
0.16474 
0.04442 
0.16685 
0.13912 
0.15994 
0.16511 
0.07799 
0.14329 
0.12393 
0.11709 
0.16332 
0.01626 
0.11267 
0.11070 
0.11517 
0.22050 
0.05572 
0.24417 
0.14037 
0.06553 
0.21313 
0.12443 
0.15887 
0.10648 
0.15296 
0.19918 
0.20360 
0.06463 
0.10051 
0.13188 
0.24216 
0.18458 
0.06322 
0.24694 
0.13620 
0.22724 
0.16500 
0.22906 
0.17115 
0.08298 
0.15427 
0.06183 
0.16362 
0.18538 
0.19889 
0.11720 
0.23348 
0.06804 
0.10628 
0.15862 
0.16107 
0.14497 
0.07774 
0.18268 
0.10856 
0.18026 
0.06299 
0.14060 
0.09001 
0.20718 
0.17140 
0.09090 
0.19330 
0.04187 
0.05084 
0.11636 
0.25235 
0.09269 
0.19458 
0.18693 
0.06475 
0.19397 
0.10171 
0.07855 
0.11520 
0.18755 
0.23793 
0.06954 
0.20851 
0.15912 
0.19061 
0.21370 
0.18659 
0.22901 
0.14658 
0.19650 
0.20624 
0.13613 
0.03669 
0.24710 
0.16021 
0.17147 
0.04517 
0.12797 
0.14650 
0.17661 
0.17870 
0.18511 
0.15407 
0.26559 
0.28330 
0.22626 
0.16344 
0.23349 
0.18613 
0.23062 
0.19389 
0.07212 
0.10161 
0.14127 
0.09349 
0.09637 
0.11103 
0.08193 
0.09872 
0.19939 
0.16717 
0.13051 
0.28448 
0.27002 
0.22872 
0.10169 
0.19727 
0.13474 
0.17225 
0.21115 
0.19491 
0.16822 
0.11492 
0.06587 
0.10235 
0.17215 
0.18204 
0.15464 
0.12311 
0.21327 
0.20159 
0.13466 
0.12959 
0.17554 
0.17072 
0.14844 
0.06105 
0.16761 
0.12786 
0.10844 
0.27309 
0.08486 
0.20421 
0.07810 
0.23199 
0.10389 
0.09545 
0.12542 
0.19274 
0.17661 
0.18648 
0.05996 
0.17354 
0.13804 
0.21561 
0.19373 
0.20788 
0.05174 
0.13049 
0.05739 
0.14217 
0.09748 
0.28039 
0.11462 
0.08565 
0.09016 
0.04659 
0.09502 
0.16338 
0.08853 
0.26232 
0.08586 
0.14682 
0.06335 
0.10881 
0.17209 
0.18565 
0.08299 
0.19979 
0.08865 
0.08740 
0.09530 
0.18020 
0.23823 
0.11437 
0.18342 
0.10510 
0.35040 

 VECTORS Umean float 
-0.02500 -0.01400 -0.11800 
-0.04200 0.01050 -0.02550 
-0.00900 0.07350 -0.07150 
0.02150 -0.04250 -0.04900 
0.01550 0.06800 -0.16550 
0.15150 0.04000 -0.09800 
0.02800 0.06550 -0.11750 
0.01100 0.01600 -0.05300 
-0.01200 0.06500 -0.04000 
0.03850 -0.03300 -0.07550 
0.10750 0.08100 0.00250 
0.10750 0.09000 -0.07150 
-0.06800 0.00450 -0.10300 
-0.00050 -0.00100 -0.14400 
0.16400 -0.05300 -0.10400 
0.03350 0.03850 -0.15300 
-0.01800 -0.02400 -0.06050 
0.06200 -0.02150 -0.17350 
0.03150 0.00100 -0.04900 
-0.07500 -0.03400 0.05650 
-0.01150 -0.07050 -0.09950 
0.12450 0.08750 -0.15900 
0.03250 0.06650 0.02300 
0.03700 0.07500 -0.16050 
0.02750 0.13750 -0.15550 
0.10750 0.09450 -0.11700 
0.02700 -0.03600 -0.14400 
0.04400 0.03600 -0.12550 
0.06750 0.11300 -0.06150 
0.08250 0.08400 -0.21000 
0.08800 0.06500 -0.14950 
-0.03250 0.01950 -0.10300 
0.05150 -0.00000 -0.12350 
0.15050 0.09000 -0.16150 
0.04900 0.09100 -0.13850 
0.05650 0.05250 0.07550 
-0.02550 0.04000 -0.13400 
-0.07450 -0.13100 0.03700 
-0.02500 0.03800 -0.20050 
0.13300 0.02450 -0.09400 
0.03050 0.11050 -0.05650 
0.05400 0.03800 -0.18200 
-0.01400 0.06050 -0.06600 
0.05550 -0.06300 -0.06800 
0.06250 0.19500 0.07650 
0.03950 0.01450 -0.09550 
-0.10300 0.03100 -0.05750 
-0.11400 -0.00100 0.00250 
0.10250 0.08450 0.12900 
0.14200 0.11350 -0.00350 
0.04700 0.07850 -0.10900 
-0.01000 0.05350 -0.08950 
0.08300 0.03050 -0.08150 
-0.01000 0.14550 -0.18550 
0.06550 0.06350 0.03100 
0.07750 0.05450 -0.04650 
-0.01300 -0.04500 -0.00950 
0.01100 0.09450 -0.22650 
0.02150 0.09800 -0.13900 
-0.01300 0.11100 -0.10900 
0.13050 0.01750 -0.11100 
-0.03650 0.10750 -0.14550 
0.21950 0.03250 -0.13800 
0.08200 -0.01750 -0.18750 
0.04850 0.06900 -0.03000 
0.08950 0.16000 0.04200 
0.00900 0.01300 0.00750 
0.03050 0.03000 -0.02950 
0.07600 0.03550 -0.08000 
0.12600 -0.02700 -0.04400 
0.04000 0.05750 0.01950 
0.11950 0.08350 -0.01350 
0.05900 0.05350 -0.08100 
-0.00250 0.05600 -0.16750 
0.03900 0.11050 0.03950 
0.02450 0.08900 -0.14400 
0.08050 0.00150 -0.14850 
0.04450 0.01400 -0.03100 
0.00900 -0.01750 0.04000 
0.01500 -0.01550 -0.08550 
0.12900 -0.04250 -0.04850 
0.13550 0.05200 -0.15700 
0.02650 0.07050 -0.07850 
0.17200 0.04800 -0.12600 
-0.00900 -0.00350 -0.13150 
0.05800 0.02300 -0.11500 
-0.07550 -0.01200 -0.15750 
0.07000 0.03350 -0.14600 
-0.02850 0.11300 -0.11850 
-0.09300 0.08350 0.01600 
0.13550 0.14300 -0.09850 
0.17550 0.02000 0.06850 
0.01050 0.11650 -0.13300 
-0.05750 0.04550 0.00750 
0.08550 0.07250 -0.09400 
0.10650 0.17200 -0.00300 
0.04400 -0.01050 -0.10450 
-0.01900 -0.10900 -0.10550 
-0.22850 0.06000 -0.02900 
0.01200 0.08850 -0.04900 
0.07850 0.01000 0.02350 
0.08300 0.04000 -0.08700 
0.04000 -0.00700 -0.03700 
0.03950 -0.08200 -0.03300 
0.02200 0.04750 -0.10850 
0.02950 0.03400 -0.01750 
-0.08700 0.11650 -0.13800 
0.08100 0.12200 0.01250 
0.02600 0.04700 -0.25250 
0.16300 0.08950 0.11250 
-0.07150 -0.09950 0.00200 
-0.25150 -0.15800 0.09400 
0.03300 0.04050 -0.14600 
0.00550 -0.00500 -0.23100 
0.05250 -0.02400 -0.18950 
0.03600 0.06100 -0.02700 
0.08700 0.08200 -0.01200 
-0.04300 -0.03400 -0.02300 
0.07050 0.03150 -0.16550 
-0.00450 -0.10600 0.08400 
0.08350 0.08100 -0.07250 
0.01800 0.04550 -0.16800 
-0.04200 0.02550 -0.07750 
0.04000 0.08700 -0.02850 
0.02150 -0.01550 -0.13900 
-0.10400 -0.02400 -0.03600 
0.09400 0.07250 -0.14050 
-0.00250 0.06100 -0.12550 
0.00450 0.00350 -0.08150 
0.04600 0.03950 -0.12600 
-0.01050 0.05000 -0.14050 
0.04800 0.11400 0.01300 
0.17050 0.10450 -0.27950 
-0.07950 -0.05000 -0.01750 
0.19150 0.10300 -0.01550 
-0.07950 0.05500 -0.05750 
0.06600 0.04450 -0.19000 
0.10100 0.03350 -0.12150 
0.00800 0.07100 -0.02550 
0.07150 0.17650 0.07400 
0.03100 -0.00300 -0.02900 
-0.20900 0.09050 -0.04550 
0.13450 -0.00200 -0.13550 
-0.09100 -0.04250 -0.00850 
-0.01950 0.08850 -0.09100 
-0.15450 -0.00250 0.04900 
0.05350 -0.03750 -0.01600 
-0.15750 0.06200 0.00600 
0.10050 0.12550 -0.07200 
0.02300 0.15000 -0.02650 
0.05500 0.02450 -0.18250 
-0.04100 0.02600 -0.11800 
-0.04450 0.08600 -0.12350 
0.03400 0.14350 -0.21950 
0.10000 0.13350 0.03400 
0.09450 -0.04350 -0.15450 
0.05750 0.04600 -0.14950 
0.08400 -0.02950 -0.19000 
0.12500 0.15000 -0.12400 
-0.00550 0.10350 -0.16350 
-0.06700 -0.01350 -0.04250 
-0.01800 0.01750 -0.04100 
0.01300 0.09200 -0.00750 
0.14150 0.15150 -0.01700 
0.08750 0.04400 0.01600 
0.10150 0.10850 -0.08350 
0.02500 0.00950 -0.07150 
0.05700 0.00900 -0.05750 
0.20000 -0.02700 -0.15450 
-0.02600 -0.05900 0.03400 
0.01500 0.11000 -0.13350 
0.25200 0.18150 0.08300 
0.12150 0.10150 -0.02050 
-0.00350 -0.01300 -0.09400 
0.12150 0.01950 0.14950 
0.07800 -0.05200 -0.07150 
0.00950 0.14400 -0.14300 
0.12500 -0.07150 -0.07500 
-0.06600 0.02800 -0.15500 
-0.08350 -0.00050 -0.08950 
0.16800 -0.04450 -0.03250 
-0.01850 0.06700 -0.03250 
0.10350 0.09900 -0.02200 
0.02950 0.06650 -0.05050 
-0.08650 0.02150 -0.25550 
-0.06300 0.09250 -0.17600 
-0.00350 0.07200 -0.01550 
0.14350 -0.06050 -0.04150 
0.11150 -0.02850 -0.10100 
-0.08600 0.12050 -0.05100 
0.13550 -0.07750 -0.19750 
0.03150 0.01800 -0.04800 
0.02600 0.07300 0.16100 
0.07650 0.08950 -0.19600 
-0.19650 -0.11550 0.08450 
0.08100 0.05750 -0.15850 
0.01150 -0.03350 0.10100 
0.00050 -0.12650 -0.09750 
0.03950 -0.00550 -0.09900 
0.04600 0.04700 -0.04550 
0.08150 0.07800 -0.16800 
0.08950 -0.03400 -0.12200 
0.10300 -0.01100 -0.03800 
0.13750 -0.00700 -0.19200 
0.01250 0.08200 -0.15100 
0.01950 0.02350 -0.00600 
0.02700 -0.03050 0.17300 
-0.09700 0.00300 -0.02550 
0.04550 0.04900 -0.06500 
0.02000 0.03200 0.00150 
0.06800 -0.05000 -0.00150 
0.07000 0.01200 -0.08400 
0.09600 0.02650 -0.14700 
-0.08100 -0.01100 -0.05400 
0.08450 0.02900 -0.04950 
-0.10400 0.04400 -0.08300 
0.03900 0.03300 0.07150 
-0.01350 -0.01900 -0.16750 
0.00900 0.06150 -0.08850 
0.09250 0.01000 0.04200 
0.06400 0.01200 0.04350 
0.08400 0.00300 0.00100 
0.08450 0.19700 0.02100 
-0.11000 0.00500 -0.04250 
0.03450 0.12500 -0.03700 
-0.06750 0.19200 -0.11250 
0.04500 -0.00700 0.07400 
0.01450 0.09050 -0.06550 
0.04850 0.08300 0.01750 
0.04800 0.04600 -0.09700 
0.05650 0.09850 0.06000 
0.15250 0.08850 -0.10600 
0.04950 -0.04500 0.10450 
0.05100 0.10900 0.02450 
0.06600 -0.01900 -0.05250 
0.01900 0.03250 0.00250 
0.02500 -0.05650 0.05350 
0.01150 0.17700 -0.04150 
-0.06600 0.05600 -0.07600 
0.01500 0.05900 0.00700 
0.09450 0.07550 -0.25050 
0.20250 0.21050 -0.08200 
0.10800 0.01400 -0.05050 
-0.07750 -0.07450 -0.10150 
0.09650 -0.03550 -0.22450 
0.11000 0.06100 -0.10750 
0.17300 0.12150 -0.10600 
-0.10200 0.04650 -0.07250 
0.05250 0.00050 -0.11100 
0.02700 0.05050 -0.01500 
-0.06300 0.06800 -0.07050 
0.17350 0.13500 -0.25750 
0.15000 0.04400 -0.28300 
0.10700 -0.00850 -0.07100 
-0.02700 0.05150 -0.12450 
-0.05350 0.02500 0.02350 
0.04700 0.00050 -0.16000 
0.07400 0.02850 -0.16850 
0.06950 0.11050 -0.10050 
-0.03150 -0.02450 0.01950 
0.04150 -0.04400 -0.15550 
0.00850 0.02550 -0.13650 
0.11050 0.11500 -0.01200 
0.15600 0.03000 -0.04500 
-0.01200 0.02150 -0.07400 
0.02200 0.07900 -0.11750 
-0.02550 0.08450 -0.08700 
0.10850 -0.00150 -0.04400 
0.14800 0.05150 0.04600 
-0.00550 -0.00950 0.01200 
0.11000 0.01700 -0.01750 
-0.01500 0.07450 -0.08050 
0.03800 -0.05950 -0.09100 
0.03500 0.08600 -0.20000 
0.03150 -0.04550 0.00650 
0.17750 0.09150 -0.14050 
0.03850 0.03450 -0.13050 
0.06550 -0.00050 0.00200 
0.08200 0.12550 -0.15150 
0.05050 0.04600 -0.10400 
-0.02800 0.04750 -0.14900 
0.08200 0.06550 0.01800 
0.10250 0.07050 -0.08900 
0.13100 0.06650 -0.13450 
-0.04100 -0.01300 -0.19900 
0.00600 0.05400 -0.03500 
0.02150 -0.05000 -0.08450 
0.08250 0.10200 -0.01350 
0.05700 0.11200 -0.20700 
0.14050 0.10900 -0.04950 
0.03950 0.03800 -0.03150 
0.22300 0.07550 0.07450 
0.10600 0.08350 -0.01850 
-0.06950 -0.20950 0.05400 
0.02750 0.16250 -0.00800 
0.03600 -0.12200 -0.19050 
0.01500 0.14750 -0.08550 
0.05500 0.05100 0.03550 
-0.08250 0.11650 -0.05850 
0.05350 -0.00000 -0.03100 
0.05800 0.07200 -0.13500 
-0.07550 0.08400 -0.14700 
0.07400 -0.00650 -0.18450 
-0.07300 -0.07750 -0.04900 
0.00900 0.18550 -0.14150 
-0.04050 0.04200 -0.03500 
-0.07250 -0.03850 -0.06750 
0.03550 0.00550 -0.15450 
0.10750 0.03050 -0.11600 
-0.08500 -0.10650 -0.04950 
0.02550 -0.00800 -0.07300 
0.03650 0.11400 0.13800 
0.09250 0.05000 0.02700 
-0.00700 -0.05350 -0.17200 
0.00600 0.02500 -0.05750 
0.11800 -0.05650 0.05150 
0.08800 0.01500 -0.01150 
-0.07150 0.03900 -0.19050 
0.15800 0.06350 -0.01950 
0.00500 0.08650 -0.02750 
0.05850 0.12150 -0.13850 
-0.00650 -0.02900 -0.02950 
0.03450 -0.01650 0.03350 
0.06900 0.09350 -0.00600 
0.09350 0.02550 -0.23300 
0.03550 0.00450 -0.08550 
0.03550 0.13800 -0.13250 
0.04050 0.01900 -0.18150 
0.05650 -0.02450 -0.02000 
0.18900 0.01350 -0.04150 
0.08100 0.05850 -0.01900 
0.02900 -0.00000 -0.07300 
-0.04400 0.07750 0.07300 
-0.12300 0.07900 0.11750 
0.21750 0.03050 -0.09150 
0.02300 -0.02000 -0.06250 
0.06800 0.16650 0.10550 
-0.00550 0.00300 -0.15900 
0.15100 -0.02050 -0.11450 
-0.13850 -0.12800 0.10050 
0.07300 0.05250 -0.16350 
0.12200 0.07550 -0.17850 
0.05150 0.12800 -0.04950 
0.13400 0.05800 0.13150 
0.20200 -0.02400 -0.03400 
0.11400 0.01150 -0.07350 
0.01600 0.02700 0.01900 
0.17300 0.08700 -0.15350 
0.01250 0.15450 0.04050 
0.00950 0.10400 -0.13600 
0.00450 -0.04200 0.01600 
-0.05900 -0.07750 0.08300 
-0.06750 -0.08000 -0.10250 
0.14150 0.10500 -0.01200 
0.05800 0.16000 0.05450 
0.14550 0.11400 0.01000 
-0.04700 -0.04700 -0.13900 
-0.08950 -0.05900 -0.24300 
0.14200 -0.00850 -0.24500 
0.21900 0.00650 0.05650 
0.15200 0.05550 -0.02300 
0.12150 -0.01250 -0.19900 
0.14250 0.11250 0.04100 
0.09250 0.01050 -0.21100 
0.01700 0.11250 -0.15700 
0.04400 -0.03100 -0.04800 
-0.02400 0.08200 -0.05500 
0.08300 -0.00850 -0.11400 
-0.05550 0.06550 0.03700 
-0.01000 0.03800 -0.08800 
0.07600 0.08050 -0.00850 
0.04600 -0.01550 -0.06600 
-0.00500 -0.02450 -0.09550 
0.07800 -0.00100 -0.18350 
0.08750 -0.08800 -0.11200 
-0.05300 -0.06650 -0.09900 
0.11900 0.02150 -0.25750 
0.07950 0.11400 -0.23150 
0.12650 0.10350 -0.16000 
0.08950 -0.04500 0.01750 
0.17100 -0.01300 -0.09750 
0.07850 0.02550 0.10650 
0.14600 -0.00850 -0.09100 
0.03450 0.04450 -0.20350 
0.00650 -0.06100 -0.18500 
0.12500 0.11150 0.01550 
0.05550 0.04400 0.09050 
-0.01000 -0.05250 0.03850 
-0.09950 -0.00950 -0.02200 
0.07200 -0.04900 0.14850 
-0.17650 0.03200 0.03100 
0.15400 -0.00100 -0.01400 
-0.00550 0.09550 -0.07750 
0.19950 0.03550 -0.06650 
0.07700 -0.17800 0.05500 
-0.06050 -0.05500 -0.10700 
0.01750 0.10350 -0.07600 
-0.16700 0.05150 0.01650 
-0.06200 0.00450 -0.15900 
-0.08850 -0.11900 0.00650 
-0.04150 -0.04300 0.01250 
0.12200 0.08300 0.07950 
0.08900 0.07350 -0.05500 
0.03550 -0.10150 -0.01400 
0.12050 -0.00550 -0.24500 
0.07150 0.02750 0.03650 
-0.06100 -0.04550 -0.18950 
-0.01600 -0.04800 -0.05950 
0.13500 0.11950 -0.14600 
-0.05000 0.06850 -0.06000 
-0.04250 0.05550 0.06500 
-0.02300 -0.07000 -0.10150 
0.05800 0.03200 -0.18100 
-0.12950 0.04700 -0.11050 
-0.05700 0.07800 -0.15950 
-0.03150 -0.02100 -0.04650 
0.05500 0.12550 -0.10650 
0.13500 -0.01000 -0.02700 
0.13850 0.12800 -0.10450 
0.06050 0.16550 -0.08050 
-0.12850 0.12350 -0.10700 
0.04900 0.01600 -0.00450 
-0.05000 0.05250 -0.10850 
0.05600 0.01150 -0.00500 
0.12100 0.02300 -0.07100 
0.03650 -0.02450 -0.08700 
0.10050 0.10450 -0.24000 
0.04350 0.08300 -0.06600 
-0.08100 -0.02650 -0.00850 
0.00700 0.04000 -0.08050 