# vtk DataFile Version 2.0 
Xm, Ym, Zm, Uvecs, timestep 10049 
ASCII 
 
DATASET POLYDATA POINTS 498 float 
 -5.505   7.900 -72.966 
  8.790   4.801 -69.424 
 -4.428  -7.851 -73.005 
  1.083  12.365 -71.152 
 -0.687   3.906 -69.658 
  1.269   4.385 -69.950 
 -0.324   1.717 -72.239 
  3.633   3.816 -69.826 
  0.362   4.656 -69.385 
  8.374   3.376 -69.145 
-11.430   5.603 -72.262 
  1.480   4.438 -72.333 
 -8.267   2.331 -72.748 
 -2.776   2.849 -72.346 
 -3.247   4.954 -69.103 
  5.324   2.758 -69.032 
 -1.759  -0.531 -71.555 
  4.264   9.832 -73.971 
 -0.460  -1.239 -70.718 
 12.458  -3.213 -69.316 
  1.481  -3.175 -70.878 
-12.310   8.258 -75.949 
  7.409  11.038 -71.924 
 -6.258   0.756 -67.430 
  0.624   5.524 -71.395 
  5.534  -6.981 -76.844 
  8.062   4.241 -68.763 
  3.291  10.305 -68.307 
  0.627   2.226 -67.660 
  5.200   4.778 -68.210 
  7.193  12.031 -70.447 
  7.188   3.750 -71.477 
  1.740  -9.117 -73.068 
 -2.615   8.089 -72.580 
 -7.976  -6.841 -74.249 
 -6.329   9.341 -65.684 
 -3.160   6.736 -71.018 
 -3.200  -4.016 -66.540 
  2.322  -4.472 -66.130 
 -0.998   9.285 -68.126 
 -4.330  13.058 -67.043 
 12.341  -3.415 -71.707 
  1.756  -6.250 -72.311 
 -6.500  11.307 -70.063 
 -5.594  -2.170 -68.576 
  8.517   6.486 -72.170 
  9.207   0.678 -72.524 
-11.996   0.012 -68.879 
 -4.153   0.960 -72.968 
  5.620   9.053 -73.197 
 -9.047   2.754 -66.005 
 -4.154   2.744 -68.442 
 -7.095  -1.125 -72.760 
  8.509  11.058 -69.821 
 -6.011   4.733 -70.101 
  7.572   0.935 -70.476 
-11.076  -4.716 -68.810 
  9.397  11.876 -68.367 
 -7.426  -4.812 -66.352 
 -4.617   2.741 -65.077 
  0.795  -3.140 -70.241 
 -1.183  -7.019 -72.200 
  6.504  -1.839 -66.176 
 -8.344  -2.412 -69.066 
 -4.965  -2.472 -67.746 
-13.047   2.178 -70.845 
  7.188   5.209 -67.121 
  2.918  11.640 -68.538 
  9.051  -4.110 -70.351 
  4.582  -3.595 -66.805 
 -5.825   9.602 -73.440 
 12.166  -1.199 -70.076 
 -0.080  -2.939 -69.511 
  5.611   8.920 -70.862 
  8.982   7.757 -67.576 
 -0.220  -5.434 -68.267 
 -5.186  -7.518 -70.068 
-15.415  12.024 -73.023 
 -0.613   0.126 -72.183 
 12.576  -4.393 -69.392 
 -9.584   3.340 -66.974 
 -6.072   4.197 -74.702 
  9.107 -12.651 -67.974 
  8.254   9.017 -75.233 
-15.717  10.915 -72.773 
  3.938  -5.473 -64.137 
 -5.890  -3.078 -66.606 
 -7.292  -7.947 -66.570 
  5.795  -4.240 -66.557 
 -9.662  -2.442 -68.266 
-14.689  -7.841 -68.656 
  9.258   8.287 -71.209 
  1.371   1.441 -69.946 
 -8.727   2.978 -63.310 
 -8.497  -7.240 -65.935 
  7.009  -1.256 -71.659 
 -8.586  -9.726 -67.035 
 -4.834   3.184 -72.279 
  1.243   1.739 -66.281 
-11.540   3.188 -63.270 
  9.495   5.082 -67.097 
 12.983   3.306 -72.913 
-10.474  -3.790 -67.038 
 -7.125  -3.381 -66.398 
 -1.151  -0.284 -62.957 
  9.276   9.369 -64.105 
  6.168   7.048 -70.617 
-15.676  -9.831 -74.922 
  1.146  -3.254 -66.035 
  1.288   5.845 -72.262 
-11.107   8.658 -62.457 
 11.175  10.777 -71.399 
 10.111   6.208 -73.471 
 13.595   0.221 -63.854 
 -7.357  -5.398 -63.807 
 -8.579  -2.861 -66.132 
 -2.590  10.858 -69.874 
 16.623  -0.793 -68.541 
 -7.467   2.789 -63.939 
 -0.605   8.128 -72.737 
-12.677   1.683 -70.869 
 -8.258  11.843 -72.486 
 -5.046  -6.825 -65.433 
-15.113  -9.591 -72.102 
 -6.044   9.230 -63.724 
 -8.216  -5.643 -67.733 
  2.787  -0.936 -64.261 
  2.423  12.222 -63.883 
 10.135  -7.227 -71.661 
 -2.849   2.616 -66.481 
 -7.917  -0.571 -63.286 
 -0.328   2.410 -69.727 
  1.252  -4.771 -64.793 
 11.095  -5.164 -67.037 
  1.043  -9.920 -71.090 
 -5.596   3.164 -63.399 
  2.979  -9.861 -64.464 
 11.015   7.439 -69.266 
  2.697  -0.825 -76.339 
 -4.933  -7.921 -65.760 
-12.361   4.760 -68.996 
 -2.949  -1.902 -73.886 
 -9.403   6.052 -70.771 
-11.822   9.820 -65.724 
 -1.812  11.276 -62.471 
 13.946  -5.738 -71.400 
-13.479   7.389 -71.180 
 -9.595  -7.644 -68.566 
 12.410   5.360 -75.352 
 13.259  -3.737 -70.288 
 -8.241   9.302 -63.758 
  3.114  12.300 -73.031 
  3.816  11.265 -67.822 
 -5.403  -1.700 -62.374 
  3.679 -11.289 -66.599 
-15.732   4.184 -70.922 
 -9.825  -2.931 -68.273 
 -2.582 -11.570 -66.758 
  2.664  -8.873 -70.245 
 13.603  -4.317 -66.035 
-11.114  -4.293 -64.906 
 -8.577  11.323 -63.023 
  9.562  -7.515 -71.903 
 12.657   9.087 -72.077 
 11.187   6.828 -63.886 
-10.738   7.507 -64.672 
  8.503  -4.378 -73.407 
 11.369   0.847 -66.091 
 -2.130  -9.718 -61.260 
  7.376  -4.124 -71.461 
  5.295  -2.999 -71.217 
 -8.221   7.595 -65.220 
 -5.442   0.948 -67.780 
 -2.990  -6.104 -73.499 
-10.399  10.116 -64.200 
 12.907   8.881 -64.838 
  4.396   3.671 -70.897 
 -6.493   1.262 -61.326 
 16.914   9.034 -67.454 
 11.982  -4.184 -70.455 
 10.314  -8.846 -71.009 
  0.982   2.096 -62.291 
 -8.677 -11.572 -73.248 
  2.290   6.797 -64.606 
  7.032   7.991 -73.019 
-10.338   6.553 -66.604 
 14.620  -3.726 -72.747 
 -3.166  -3.531 -64.987 
  3.142   9.714 -70.566 
 11.534  -1.475 -68.831 
 -5.039  -1.799 -68.566 
  1.358  11.538 -65.173 
  7.887 -12.517 -65.783 
  2.477 -12.394 -64.731 
  5.421   0.655 -62.010 
  5.440  -7.689 -63.384 
-12.501  -7.245 -67.706 
 -6.316  -6.284 -67.813 
  2.761  -4.707 -70.631 
 -6.307  10.481 -62.557 
 -8.345  -5.643 -64.896 
 10.990  11.313 -66.913 
-14.875  -5.434 -75.490 
 12.523  10.657 -68.397 
-10.587  -2.827 -74.221 
 14.540   1.981 -66.180 
 11.672   0.060 -70.343 
  6.643   2.184 -72.648 
-13.103   1.446 -76.423 
 -1.651  -4.689 -66.826 
  8.018   6.774 -63.677 
  9.584   4.374 -63.546 
  7.175  -5.212 -69.035 
 13.874  -7.184 -66.054 
-11.702   3.223 -69.339 
 17.943   1.821 -68.783 
 16.651   6.479 -70.631 
-13.028  10.719 -65.269 
 -7.367  -6.103 -69.624 
-13.019   7.822 -75.900 
  5.043   8.218 -70.551 
 -5.626 -10.313 -66.014 
 -0.073  -4.421 -67.075 
  7.589   4.072 -74.841 
 13.317  -6.266 -72.518 
  5.930   1.863 -66.347 
 -5.747  -4.799 -74.844 
 -3.033  -8.643 -69.963 
 -7.497   2.231 -69.278 
  7.425  -7.534 -71.803 
 -9.007   6.360 -62.118 
-10.264  -2.149 -64.028 
 14.063   2.559 -70.993 
  2.329   8.690 -75.837 
  0.371  -8.203 -67.998 
 -4.386   5.266 -62.422 
  9.838  -9.209 -72.838 
 10.308  -1.030 -63.075 
  7.409  -7.509 -69.716 
  1.661  -7.057 -74.182 
 -2.886  10.921 -71.608 
-13.820   5.388 -74.007 
-13.690  -4.144 -69.780 
  6.635   2.916 -73.173 
 15.526   4.784 -71.965 
  9.473  -6.540 -65.206 
 -1.008   1.459 -72.614 
 -1.156   7.136 -71.810 
  3.037  -9.756 -75.460 
  9.308  -4.334 -65.710 
  7.871 -11.604 -70.076 
 -7.487   0.992 -68.703 
  7.310   0.616 -62.510 
-10.840  11.204 -64.686 
 13.393   5.429 -63.756 
  4.468  10.948 -70.442 
  6.483   5.829 -62.728 
 -1.160 -12.538 -68.880 
 10.602   6.441 -66.920 
  6.654   0.817 -63.114 
 10.850   0.812 -66.056 
  3.174  10.417 -76.471 
-12.805  -3.138 -72.112 
 15.224   3.825 -71.247 
  5.785  -2.986 -71.863 
-14.849   5.042 -68.617 
 -7.980   2.760 -64.689 
 -4.988   4.587 -65.415 
 14.505  10.212 -75.362 
 10.935  11.948 -68.943 
  5.876  10.083 -74.386 
 15.964  -6.585 -71.570 
 14.079   9.792 -71.493 
 13.200  10.742 -67.828 
 -3.553   7.155 -70.043 
  4.056  -4.042 -73.838 
-11.659   1.863 -67.276 
 15.480 -11.358 -68.880 
 16.364   4.360 -65.040 
 10.628  -3.456 -70.191 
-11.556   9.625 -69.534 
 16.014  -7.503 -70.786 
 14.605  -3.258 -66.313 
-11.058   4.027 -67.525 
-15.123 -10.219 -72.303 
  9.110   8.703 -69.452 
 -2.219   1.079 -73.002 
  3.287  -7.890 -63.574 
 14.356  -5.402 -70.755 
-10.302  -6.986 -65.919 
  4.720 -12.038 -63.454 
-10.401  11.277 -75.323 
-13.697  -0.752 -67.990 
-13.138  11.945 -68.708 
  1.355  -5.637 -74.355 
 13.540   3.435 -64.312 
 -7.973   6.805 -66.746 
  2.164  -7.699 -66.764 
 12.672  12.084 -71.686 
 -4.950   6.713 -74.355 
 14.117   0.530 -63.381 
  4.662   8.975 -60.900 
 12.351  -8.242 -65.968 
 -2.168   7.411 -68.998 
  9.225  10.611 -68.071 
 -5.420  -9.175 -69.840 
-13.626 -11.615 -67.869 
 -3.285 -11.634 -73.947 
 -7.514   7.630 -71.101 
 -7.791   5.207 -69.506 
  2.744  -9.891 -71.091 
  1.276  -8.585 -71.325 
 -5.532  -9.928 -77.678 
 16.411  -1.805 -74.718 
 -7.614   7.824 -72.017 
 10.064  -3.335 -74.929 
 -2.648   0.596 -71.759 
  5.834  -6.867 -75.526 
-11.875 -10.838 -69.395 
  3.430  10.166 -69.976 
-13.438  11.866 -66.698 
 -4.499   0.580 -70.675 
  7.265   9.581 -71.276 
  4.562  -1.037 -72.087 
 -8.311  10.562 -74.372 
  4.666 -10.221 -65.365 
  0.421  -6.642 -77.076 
 -4.168  -9.660 -76.639 
  7.069  -9.076 -64.166 
 -8.709  -1.938 -66.819 
 12.033  -4.050 -63.444 
  6.274   2.117 -65.642 
  4.876 -10.015 -67.785 
 -3.321  -3.998 -69.840 
 -8.721 -11.017 -69.071 
 -3.375  -4.561 -72.162 
  1.478 -12.133 -64.260 
 -7.492   7.088 -73.138 
 17.139  -9.576 -74.718 
 -2.274   3.822 -61.462 
 17.220  -6.809 -72.428 
 16.529   7.411 -65.912 
-13.819   7.067 -74.917 
 -9.460  12.488 -69.690 
  7.524  -8.724 -66.654 
 -1.843 -11.325 -75.856 
  0.482  10.756 -69.326 
-10.438  -5.941 -68.150 
 -1.051   7.178 -59.569 
-15.279  -6.761 -68.751 
 -6.292  -8.364 -66.335 
-11.570  -8.111 -65.375 
 12.841  -1.152 -69.684 
 -9.344  -3.977 -62.851 
 -2.393  -3.403 -69.845 
  9.130  -7.201 -61.934 
-10.631   5.498 -66.179 
 13.576  11.337 -66.969 
-10.424   4.297 -64.630 
 14.866  -6.633 -71.814 
 -1.646   5.425 -64.026 
 -3.032   8.784 -66.600 
  9.381   2.933 -73.269 
 -2.351   3.362 -64.364 
 11.141  -3.881 -70.145 
 13.240  -8.274 -65.143 
 -0.730  -6.627 -62.137 
  8.829  -2.949 -64.227 
  2.534  12.589 -60.608 
  0.850   7.044 -63.097 
  2.216   5.217 -74.977 
  9.554  -3.359 -73.676 
 -9.175  -4.099 -70.452 
-10.797   8.217 -64.466 
 -5.027 -11.108 -60.570 
 -7.227  11.011 -67.242 
  7.148  -8.057 -61.986 
 -6.832  10.445 -67.028 
 14.136  -4.915 -75.470 
 14.720 -12.794 -67.413 
  5.593  10.146 -60.511 
 -3.955  -4.067 -72.218 
-11.653  -4.106 -68.674 
 -6.919  -7.187 -77.081 
 -9.086  -1.450 -66.689 
-14.569  10.140 -76.207 
 -1.035   0.490 -65.251 
 10.048 -12.194 -67.249 
 -1.918  11.599 -72.840 
 -4.242   9.716 -74.984 
 -1.454  12.426 -72.781 
 13.213  -6.506 -73.961 
-12.083  -1.003 -61.852 
-11.878   8.825 -75.341 
  3.706  -3.039 -67.378 
-14.951  -9.092 -69.864 
 10.711   2.306 -62.764 
-14.714  -3.586 -68.798 
 14.589  10.829 -68.907 
  2.321  -7.302 -61.563 
-11.522  -9.728 -72.736 
 14.714  -3.721 -69.608 
-11.622  -2.758 -62.132 
-14.776 -10.873 -71.619 
  6.037   3.974 -58.566 
 -8.099   9.688 -64.645 
 -3.636   6.065 -60.538 
  1.660   1.007 -65.096 
  9.585  10.220 -69.747 
 -0.516  12.738 -62.589 
  4.667  -5.532 -60.419 
 14.889   2.482 -69.037 
  8.014   4.021 -62.956 
 13.457 -11.790 -68.299 
 17.801  11.007 -67.546 
 17.413   8.213 -68.134 
  4.735 -12.345 -72.302 
 11.680   3.825 -61.876 
-15.110  -8.392 -68.644 
 14.980   8.896 -73.847 
 11.139   5.108 -64.323 
 14.538   2.621 -73.788 
 15.790 -10.919 -71.349 
 13.714   0.516 -68.388 
 -1.004  10.109 -60.311 
 -3.992   1.862 -65.237 
  4.389 -13.130 -67.101 
  8.008  11.220 -68.257 
 -8.863   0.043 -71.194 
  2.971   0.986 -65.527 
  2.057  -8.100 -65.774 
 -7.458   9.699 -77.232 
 10.469  -6.850 -74.126 
 -9.124  -5.498 -63.395 
 15.732  11.584 -72.430 
 17.370   7.507 -69.217 
 13.043  -0.759 -59.906 
 17.736  -3.724 -70.641 
-13.647   5.684 -70.832 
 -9.939   4.510 -61.724 
 -5.300   7.753 -65.121 
  1.348  10.956 -74.605 
 -9.124 -12.703 -65.394 
  9.136  -4.417 -63.050 
  8.084  -3.915 -75.267 
 14.560  -9.045 -68.411 
 17.162  -0.948 -76.406 
 -9.236  10.707 -76.260 
 -5.555   5.957 -66.026 
 15.399  13.225 -65.498 
-15.316  -2.128 -76.783 
 12.622   7.648 -63.073 
 11.074   1.938 -64.069 
 12.808  -9.514 -68.764 
 -1.244  -3.075 -70.621 
  8.728 -10.957 -72.701 
 10.355  12.809 -63.926 
  5.127   7.962 -65.218 
  7.306 -11.718 -65.790 
 -1.017   9.156 -62.407 
-11.189   8.384 -85.817 
-15.545   1.995 -77.184 
 16.731 -10.223 -67.145 
  7.309  10.010 -65.843 
  2.651  -4.797 -76.863 
-12.143   0.979 -73.289 
 15.339   8.378 -68.524 
 13.971  -2.335 -68.989 
  7.240   5.905 -65.262 
 12.608   2.628 -72.195 
  6.614  10.114 -69.196 
 -2.391   9.611 -74.580 
 -5.315  -1.760 -72.898 
 -6.455   0.912 -68.473 
 14.076  -1.783 -75.573 
 -4.345   8.668 -61.250 
 -7.208   8.961 -62.984 
 11.125   7.181 -71.011 
  7.813  -7.888 -73.864 
  0.875   5.066 -73.907 
 -7.372  -2.768 -74.482 
 -5.301   7.940 -66.457 
 13.137   5.034 -74.382 
  1.867   5.729 -68.368 
 -6.012   4.784 -64.768 
 -7.032  -7.144 -65.393 
-11.514  -7.412 -62.206 
-13.913  -7.119 -71.673 
 15.370  -7.661 -75.023 
  9.460  -1.896 -69.948 
 -2.275 -10.503 -64.788 
 12.060   0.962 -73.924 
 -5.132  11.993 -69.203 
-10.220  -3.551 -66.499 
 -5.348  -0.149 -67.998 
 15.850   8.971 -69.990 
 15.281  -7.223 -72.365 
 -7.870  13.276 -71.315 

 VERTICES 498 996 
1 0 
1 1 
1 2 
1 3 
1 4 
1 5 
1 6 
1 7 
1 8 
1 9 
1 10 
1 11 
1 12 
1 13 
1 14 
1 15 
1 16 
1 17 
1 18 
1 19 
1 20 
1 21 
1 22 
1 23 
1 24 
1 25 
1 26 
1 27 
1 28 
1 29 
1 30 
1 31 
1 32 
1 33 
1 34 
1 35 
1 36 
1 37 
1 38 
1 39 
1 40 
1 41 
1 42 
1 43 
1 44 
1 45 
1 46 
1 47 
1 48 
1 49 
1 50 
1 51 
1 52 
1 53 
1 54 
1 55 
1 56 
1 57 
1 58 
1 59 
1 60 
1 61 
1 62 
1 63 
1 64 
1 65 
1 66 
1 67 
1 68 
1 69 
1 70 
1 71 
1 72 
1 73 
1 74 
1 75 
1 76 
1 77 
1 78 
1 79 
1 80 
1 81 
1 82 
1 83 
1 84 
1 85 
1 86 
1 87 
1 88 
1 89 
1 90 
1 91 
1 92 
1 93 
1 94 
1 95 
1 96 
1 97 
1 98 
1 99 
1 100 
1 101 
1 102 
1 103 
1 104 
1 105 
1 106 
1 107 
1 108 
1 109 
1 110 
1 111 
1 112 
1 113 
1 114 
1 115 
1 116 
1 117 
1 118 
1 119 
1 120 
1 121 
1 122 
1 123 
1 124 
1 125 
1 126 
1 127 
1 128 
1 129 
1 130 
1 131 
1 132 
1 133 
1 134 
1 135 
1 136 
1 137 
1 138 
1 139 
1 140 
1 141 
1 142 
1 143 
1 144 
1 145 
1 146 
1 147 
1 148 
1 149 
1 150 
1 151 
1 152 
1 153 
1 154 
1 155 
1 156 
1 157 
1 158 
1 159 
1 160 
1 161 
1 162 
1 163 
1 164 
1 165 
1 166 
1 167 
1 168 
1 169 
1 170 
1 171 
1 172 
1 173 
1 174 
1 175 
1 176 
1 177 
1 178 
1 179 
1 180 
1 181 
1 182 
1 183 
1 184 
1 185 
1 186 
1 187 
1 188 
1 189 
1 190 
1 191 
1 192 
1 193 
1 194 
1 195 
1 196 
1 197 
1 198 
1 199 
1 200 
1 201 
1 202 
1 203 
1 204 
1 205 
1 206 
1 207 
1 208 
1 209 
1 210 
1 211 
1 212 
1 213 
1 214 
1 215 
1 216 
1 217 
1 218 
1 219 
1 220 
1 221 
1 222 
1 223 
1 224 
1 225 
1 226 
1 227 
1 228 
1 229 
1 230 
1 231 
1 232 
1 233 
1 234 
1 235 
1 236 
1 237 
1 238 
1 239 
1 240 
1 241 
1 242 
1 243 
1 244 
1 245 
1 246 
1 247 
1 248 
1 249 
1 250 
1 251 
1 252 
1 253 
1 254 
1 255 
1 256 
1 257 
1 258 
1 259 
1 260 
1 261 
1 262 
1 263 
1 264 
1 265 
1 266 
1 267 
1 268 
1 269 
1 270 
1 271 
1 272 
1 273 
1 274 
1 275 
1 276 
1 277 
1 278 
1 279 
1 280 
1 281 
1 282 
1 283 
1 284 
1 285 
1 286 
1 287 
1 288 
1 289 
1 290 
1 291 
1 292 
1 293 
1 294 
1 295 
1 296 
1 297 
1 298 
1 299 
1 300 
1 301 
1 302 
1 303 
1 304 
1 305 
1 306 
1 307 
1 308 
1 309 
1 310 
1 311 
1 312 
1 313 
1 314 
1 315 
1 316 
1 317 
1 318 
1 319 
1 320 
1 321 
1 322 
1 323 
1 324 
1 325 
1 326 
1 327 
1 328 
1 329 
1 330 
1 331 
1 332 
1 333 
1 334 
1 335 
1 336 
1 337 
1 338 
1 339 
1 340 
1 341 
1 342 
1 343 
1 344 
1 345 
1 346 
1 347 
1 348 
1 349 
1 350 
1 351 
1 352 
1 353 
1 354 
1 355 
1 356 
1 357 
1 358 
1 359 
1 360 
1 361 
1 362 
1 363 
1 364 
1 365 
1 366 
1 367 
1 368 
1 369 
1 370 
1 371 
1 372 
1 373 
1 374 
1 375 
1 376 
1 377 
1 378 
1 379 
1 380 
1 381 
1 382 
1 383 
1 384 
1 385 
1 386 
1 387 
1 388 
1 389 
1 390 
1 391 
1 392 
1 393 
1 394 
1 395 
1 396 
1 397 
1 398 
1 399 
1 400 
1 401 
1 402 
1 403 
1 404 
1 405 
1 406 
1 407 
1 408 
1 409 
1 410 
1 411 
1 412 
1 413 
1 414 
1 415 
1 416 
1 417 
1 418 
1 419 
1 420 
1 421 
1 422 
1 423 
1 424 
1 425 
1 426 
1 427 
1 428 
1 429 
1 430 
1 431 
1 432 
1 433 
1 434 
1 435 
1 436 
1 437 
1 438 
1 439 
1 440 
1 441 
1 442 
1 443 
1 444 
1 445 
1 446 
1 447 
1 448 
1 449 
1 450 
1 451 
1 452 
1 453 
1 454 
1 455 
1 456 
1 457 
1 458 
1 459 
1 460 
1 461 
1 462 
1 463 
1 464 
1 465 
1 466 
1 467 
1 468 
1 469 
1 470 
1 471 
1 472 
1 473 
1 474 
1 475 
1 476 
1 477 
1 478 
1 479 
1 480 
1 481 
1 482 
1 483 
1 484 
1 485 
1 486 
1 487 
1 488 
1 489 
1 490 
1 491 
1 492 
1 493 
1 494 
1 495 
1 496 
1 497 
POINT_DATA 498 
SCALARS MeanU double 1 
LOOKUP_TABLE default
0.08004 
0.11673 
0.07474 
0.07505 
0.12600 
0.10041 
0.10930 
0.09677 
0.13359 
0.10501 
0.03856 
0.09190 
0.03459 
0.12087 
0.15219 
0.07396 
0.10920 
0.15350 
0.16746 
0.09242 
0.14596 
0.06434 
0.16609 
0.14554 
0.09764 
0.07227 
0.08431 
0.14312 
0.19724 
0.07275 
0.07170 
0.09801 
0.10785 
0.12923 
0.08227 
0.13338 
0.12678 
0.17938 
0.19641 
0.09953 
0.12728 
0.04180 
0.08437 
0.20338 
0.11073 
0.07862 
0.09421 
0.03466 
0.08435 
0.12771 
0.14899 
0.12255 
0.04701 
0.08923 
0.08251 
0.11019 
0.10681 
0.06574 
0.12113 
0.15388 
0.13334 
0.04507 
0.17204 
0.05104 
0.10548 
0.04892 
0.07590 
0.12418 
0.07069 
0.14292 
0.10814 
0.08447 
0.19098 
0.07689 
0.10154 
0.17885 
0.13861 
0.04811 
0.10457 
0.09414 
0.13365 
0.03365 
0.06148 
0.09470 
0.09036 
0.16617 
0.18885 
0.16482 
0.11001 
0.08715 
0.10532 
0.13096 
0.15119 
0.10496 
0.19316 
0.12177 
0.09783 
0.07976 
0.23391 
0.13724 
0.08144 
0.11102 
0.16019 
0.13243 
0.20007 
0.11565 
0.11381 
0.12346 
0.18291 
0.11369 
0.17545 
0.09925 
0.10570 
0.18688 
0.14630 
0.10540 
0.11527 
0.11084 
0.10346 
0.12689 
0.03881 
0.07598 
0.13265 
0.10901 
0.11465 
0.17186 
0.19764 
0.09444 
0.06591 
0.11660 
0.13612 
0.09996 
0.15128 
0.05893 
0.14000 
0.17156 
0.18362 
0.08772 
0.09340 
0.18022 
0.04987 
0.05643 
0.08419 
0.03986 
0.10283 
0.08071 
0.03788 
0.13249 
0.10711 
0.08880 
0.15301 
0.11447 
0.14709 
0.20687 
0.14532 
0.08204 
0.06753 
0.12084 
0.09703 
0.10314 
0.13985 
0.13168 
0.08599 
0.11497 
0.13550 
0.14239 
0.06226 
0.16042 
0.13652 
0.03787 
0.03899 
0.10355 
0.14879 
0.06789 
0.06363 
0.08020 
0.08261 
0.17606 
0.16913 
0.02823 
0.06014 
0.18789 
0.12660 
0.16645 
0.11522 
0.10228 
0.04637 
0.13774 
0.09144 
0.09352 
0.15081 
0.13567 
0.18567 
0.11272 
0.24333 
0.19106 
0.08509 
0.06403 
0.11504 
0.13314 
0.11222 
0.06231 
0.10061 
0.12712 
0.04993 
0.12544 
0.09633 
0.07425 
0.04714 
0.21253 
0.09914 
0.14570 
0.08019 
0.12092 
0.08270 
0.14637 
0.09627 
0.03736 
0.15916 
0.06693 
0.05183 
0.11490 
0.19645 
0.11396 
0.03798 
0.11843 
0.04437 
0.12193 
0.08851 
0.03728 
0.16956 
0.12102 
0.11424 
0.10671 
0.16792 
0.22148 
0.05659 
0.17295 
0.01246 
0.10179 
0.09039 
0.05765 
0.05079 
0.11951 
0.14137 
0.13782 
0.15858 
0.09766 
0.07164 
0.17314 
0.02398 
0.09534 
0.12578 
0.05992 
0.09901 
0.06578 
0.12416 
0.11958 
0.11637 
0.08436 
0.12283 
0.05965 
0.04769 
0.11932 
0.09693 
0.04952 
0.14042 
0.13511 
0.16326 
0.08052 
0.13361 
0.07532 
0.17968 
0.13610 
0.13201 
0.09656 
0.05821 
0.09633 
0.10481 
0.06709 
0.04867 
0.04719 
0.10789 
0.09223 
0.12448 
0.14643 
0.07104 
0.16996 
0.13089 
0.09266 
0.03976 
0.09733 
0.12868 
0.04925 
0.07515 
0.10141 
0.10801 
0.26293 
0.12605 
0.05065 
0.11704 
0.11856 
0.08545 
0.12694 
0.06656 
0.17621 
0.14158 
0.13529 
0.13260 
0.06232 
0.09194 
0.20675 
0.14335 
0.07584 
0.09732 
0.10108 
0.10705 
0.08451 
0.19996 
0.07545 
0.04904 
0.07655 
0.08179 
0.15329 
0.05301 
0.12587 
0.04026 
0.04574 
0.06472 
0.09083 
0.07816 
0.14585 
0.19443 
0.11097 
0.15593 
0.07806 
0.22478 
0.04557 
0.04754 
0.11332 
0.12750 
0.16617 
0.06892 
0.05736 
0.11076 
0.09969 
0.10623 
0.13222 
0.05965 
0.12945 
0.14444 
0.06494 
0.10144 
0.08989 
0.09849 
0.10105 
0.07727 
0.09400 
0.07114 
0.05888 
0.16235 
0.12594 
0.14933 
0.18209 
0.03363 
0.18359 
0.13356 
0.07750 
0.11544 
0.16482 
0.06178 
0.05099 
0.14281 
0.10046 
0.18126 
0.15135 
0.12157 
0.15708 
0.07887 
0.09552 
0.11955 
0.09393 
0.10086 
0.08213 
0.23659 
0.09283 
0.24792 
0.04332 
0.04701 
0.15083 
0.14279 
0.02907 
0.11740 
0.06724 
0.16808 
0.09312 
0.19696 
0.18226 
0.13063 
0.17332 
0.12416 
0.09441 
0.14989 
0.11455 
0.23956 
0.23240 
0.12736 
0.18073 
0.07796 
0.10838 
0.14821 
0.11326 
0.10195 
0.03964 
0.10959 
0.12035 
0.05140 
0.14530 
0.06300 
0.08140 
0.09823 
0.10671 
0.09202 
0.15916 
0.12662 
0.19804 
0.17289 
0.07554 
0.05988 
0.15104 
0.19589 
0.14136 
0.06247 
0.13206 
0.11934 
0.16597 
0.18983 
0.13465 
0.04489 
0.17124 
0.18243 
0.14074 
0.12139 
0.17293 
0.03375 
0.07227 
0.10202 
0.05159 
0.21309 
0.05247 
0.07839 
0.13177 
0.19650 
0.08986 
0.11215 
0.07119 
0.15927 
0.13260 
0.10430 
0.15756 
0.09396 
0.07518 
0.14221 
0.10627 
0.03944 
0.03683 
0.14919 
0.15427 
0.11262 
0.11180 
0.12602 
0.12811 
0.09047 
0.08962 
0.09704 
0.10938 
0.14223 
0.17057 
0.08013 
0.13409 
0.06300 
0.11350 
0.16016 
0.11318 
0.12573 
0.11960 
0.12974 
0.07028 
0.03574 
0.10237 
0.19194 
0.06327 
0.11237 
0.17844 
0.09548 
0.18087 
0.09177 
0.09379 

 VECTORS Umean float 
-0.01750 0.06200 -0.04750 
0.00100 0.10500 -0.05100 
0.06000 0.04450 0.00250 
-0.04000 0.02800 -0.05700 
0.01000 0.10000 -0.07600 
-0.01950 0.07400 -0.06500 
0.00750 0.08100 -0.07300 
-0.01350 0.06850 -0.06700 
0.00200 0.10950 -0.07650 
0.01800 0.08600 -0.05750 
-0.03200 0.01850 -0.01100 
-0.01400 0.05050 -0.07550 
0.00700 -0.00500 0.03350 
0.04400 0.09850 -0.05450 
0.01050 0.13550 -0.06850 
0.01400 0.04500 -0.05700 
0.04550 0.09150 -0.03850 
-0.11000 0.05950 -0.08900 
0.03200 0.16050 -0.03550 
0.03500 0.08100 -0.02750 
-0.00800 0.14450 -0.01900 
-0.05500 0.00950 -0.03200 
-0.11200 -0.00600 -0.12250 
0.00350 0.13300 -0.05900 
-0.01200 0.07000 -0.06700 
-0.00100 0.06850 -0.02300 
-0.00000 0.07000 -0.04700 
-0.01100 0.10950 -0.09150 
0.06250 0.17050 -0.07700 
0.02850 0.05000 -0.04450 
-0.01300 0.00150 -0.07050 
-0.07750 -0.00050 -0.06000 
0.04300 0.09850 0.00900 
-0.08050 0.06550 -0.07700 
-0.02450 0.05350 0.05750 
-0.01200 0.11500 -0.06650 
-0.04600 0.08600 -0.08100 
0.06650 0.16350 0.03200 
0.08150 0.15800 -0.08350 
-0.05850 0.08050 0.00200 
-0.00400 0.12300 -0.03250 
-0.02150 0.00500 -0.03550 
-0.01250 0.07350 -0.03950 
-0.01500 0.17200 -0.10750 
0.00700 0.08900 0.06550 
-0.05550 0.02450 -0.05000 
0.00300 0.05200 -0.07850 
0.02950 0.01750 0.00500 
0.03450 0.07550 -0.01500 
-0.07650 0.02750 -0.09850 
0.01850 0.14000 0.04750 
0.01500 0.11300 -0.04500 
0.02600 0.03800 0.00950 
-0.01750 0.05250 -0.07000 
0.03800 0.03650 -0.06350 
0.04600 0.06800 -0.07350 
0.05350 0.08450 0.03750 
0.01700 -0.00000 -0.06350 
0.03900 0.09550 0.06350 
0.06150 0.13300 0.04700 
0.02200 0.13150 -0.00200 
-0.01500 0.03850 -0.01800 
0.05100 0.10950 -0.12250 
0.00850 0.04700 0.01800 
0.00850 0.10200 0.02550 
0.03950 0.01350 -0.02550 
0.04400 0.02400 -0.05700 
-0.04750 0.09350 -0.06650 
0.01500 0.02600 -0.06400 
0.07200 0.11150 -0.05300 
-0.03800 0.08500 -0.05500 
0.01850 0.07150 -0.04100 
0.05250 0.16250 -0.08550 
-0.02950 0.04300 -0.05650 
-0.03650 0.07250 -0.06100 
0.09600 0.14550 -0.04000 
0.06000 0.12200 -0.02700 
-0.04800 -0.00200 -0.00250 
0.05100 0.06700 -0.06200 
0.03750 0.07600 -0.04100 
0.00900 0.13250 0.01500 
-0.01600 -0.00800 -0.02850 
0.04000 -0.03200 -0.03400 
-0.06200 0.03400 -0.06300 
-0.07300 0.03000 0.04400 
0.07650 0.09300 -0.11450 
0.03250 0.12250 0.14000 
-0.00950 0.16450 0.00400 
0.03100 0.07000 -0.07900 
0.06400 0.05450 0.02300 
-0.03900 0.03950 0.08950 
-0.07800 0.03950 -0.09750 
0.06450 0.07700 -0.11300 
0.02450 0.08500 0.05650 
-0.01650 0.18650 0.04750 
0.02000 0.05650 -0.10600 
0.05200 0.08150 0.01500 
0.03100 0.07300 0.00850 
0.10550 0.20500 -0.03950 
0.02350 0.12900 0.04050 
0.00100 0.06650 -0.04700 
-0.05350 0.04450 -0.08650 
0.02300 0.09000 0.13050 
0.04000 0.07300 0.10300 
0.10400 0.15050 -0.08100 
-0.03200 0.10950 -0.01900 
-0.08100 0.02900 -0.07450 
-0.06950 0.00300 -0.10200 
0.12450 0.11800 -0.06350 
-0.03600 0.03350 -0.10250 
0.02200 0.17100 -0.03250 
-0.04050 -0.00450 -0.09050 
-0.07750 -0.01400 -0.07050 
0.04100 0.13550 -0.12200 
0.01700 0.07150 0.12650 
0.03500 0.06350 0.07650 
-0.10750 0.04150 0.00300 
0.03000 0.09400 -0.05050 
0.03650 0.09450 0.02100 
-0.11200 -0.00400 -0.05950 
0.01000 -0.00000 -0.03750 
-0.02450 0.07000 0.01650 
0.06150 0.10750 -0.04750 
0.00300 0.10250 0.03700 
0.01600 0.11350 -0.00250 
0.11750 0.11800 0.04250 
0.11750 0.12550 -0.09750 
-0.03750 0.08150 0.02950 
-0.02000 0.05000 -0.03800 
0.08000 0.08300 -0.01750 
0.08650 0.08450 -0.06250 
0.03350 0.05950 -0.07300 
0.05850 0.11600 -0.07750 
0.02450 0.05200 -0.01300 
0.11650 0.07400 -0.02350 
0.07250 0.15150 0.03500 
-0.01750 0.12950 -0.12900 
-0.02450 0.03300 -0.07750 
-0.01300 0.00950 -0.09200 
0.02600 0.09800 -0.14900 
0.00250 -0.04050 -0.02900 
0.02000 0.05150 -0.01150 
0.00150 0.00550 -0.08400 
0.01600 0.02150 -0.02950 
-0.03650 0.09550 -0.01100 
0.04800 0.05900 -0.02700 
-0.03550 0.01150 -0.00650 
0.07550 0.10850 -0.00900 
-0.03950 -0.01050 -0.09900 
0.03100 0.07000 -0.04500 
0.05650 0.14200 -0.00750 
-0.10550 0.00900 -0.04350 
-0.01000 0.13850 -0.04850 
0.08900 0.11950 0.14350 
0.12700 0.07000 0.00950 
-0.01750 0.04400 -0.06700 
0.04550 0.04550 0.02050 
0.05400 0.05250 -0.09450 
0.06400 0.05700 0.04550 
-0.00500 0.09900 -0.02850 
-0.03500 0.10850 0.08100 
0.03600 0.12650 -0.00650 
0.01300 0.06350 -0.05650 
-0.06750 -0.00350 -0.09300 
0.03650 0.11400 -0.06350 
0.04400 0.10250 -0.08850 
-0.01650 0.05200 -0.03000 
0.03100 0.15400 -0.03250 
0.02650 0.12700 -0.04250 
-0.01100 0.02300 -0.02800 
0.01700 0.00250 -0.03500 
-0.00650 0.09550 -0.03950 
0.05700 0.12000 -0.06700 
-0.02600 0.06050 0.01650 
0.01850 0.05800 -0.01850 
0.04750 0.06450 -0.00400 
0.00350 0.05150 -0.06450 
0.02800 0.16200 -0.06300 
0.01300 0.01950 -0.16750 
-0.01100 0.01000 -0.02400 
0.01050 0.05900 0.00500 
0.03450 0.17050 -0.07100 
-0.02550 0.09950 -0.07400 
0.04050 0.16050 0.01750 
-0.07400 0.01200 -0.08750 
0.05700 0.04950 -0.06900 
-0.01700 0.03650 -0.02300 
0.06500 0.10950 -0.05250 
-0.07450 0.01900 -0.04950 
0.07500 0.03950 -0.03950 
0.03100 0.12100 0.08450 
-0.03900 0.11750 -0.05550 
0.15800 0.06350 0.07400 
0.02600 0.03000 -0.10550 
0.05500 0.17350 0.16150 
0.02600 0.14800 -0.11800 
0.03600 0.06150 0.04650 
0.03600 0.04100 0.03350 
-0.03750 0.10750 -0.01650 
-0.01300 0.12600 0.04100 
0.07850 0.04250 0.06800 
-0.02650 -0.05550 -0.01000 
0.01400 0.02050 -0.09750 
-0.06850 0.02100 -0.10500 
-0.02050 -0.00150 -0.04550 
0.04550 0.10850 -0.04350 
0.00650 0.08050 -0.05250 
-0.00900 -0.00550 -0.07350 
-0.02100 0.01000 0.04100 
0.03800 0.16800 0.12450 
0.04250 0.08950 -0.00350 
0.02650 0.13800 0.03850 
0.01650 0.07650 -0.01750 
0.06550 0.10150 0.00550 
0.06300 -0.02050 -0.04950 
0.03550 0.08600 -0.11300 
-0.00150 0.00700 -0.09600 
0.00050 0.03300 0.01750 
0.09100 0.12000 0.05150 
-0.04200 0.00350 0.05200 
-0.02650 0.03150 -0.03150 
0.05350 0.09700 -0.03050 
0.04300 0.18450 -0.05200 
-0.05500 0.03750 -0.09250 
0.01350 0.03550 -0.00000 
0.06450 0.09650 -0.02350 
0.04200 0.01300 0.00600 
0.04600 0.10100 0.05050 
0.05950 0.06550 -0.00200 
-0.01500 0.03350 -0.00650 
-0.06800 0.10100 -0.11800 
0.07950 0.07600 0.05050 
-0.01450 0.06100 -0.09550 
-0.00250 -0.05400 -0.09200 
0.06750 0.13450 -0.07450 
0.03750 0.21600 -0.03150 
-0.03000 0.04000 -0.02650 
0.09750 0.13400 -0.04950 
0.00800 0.00700 0.00650 
0.04200 0.08900 -0.02600 
-0.08200 0.02400 -0.02950 
-0.05350 0.01950 -0.00900 
0.03200 0.03400 0.02000 
-0.05400 -0.00500 -0.10650 
-0.06350 0.07650 -0.10050 
0.12400 0.05400 0.02650 
0.07350 0.10400 -0.09450 
-0.00250 0.06250 -0.07500 
0.04950 0.03350 0.03950 
0.10250 0.12400 0.06400 
0.02000 -0.01300 -0.00250 
0.02400 0.09050 -0.01800 
0.02600 0.12300 -0.00400 
0.03850 0.03750 -0.02650 
0.01300 0.09700 0.01500 
-0.05150 -0.03650 -0.01850 
0.07600 0.08850 -0.04250 
0.05950 0.03400 -0.09800 
-0.00400 0.10500 -0.05000 
-0.03100 0.07600 0.01950 
0.04600 0.10900 -0.03300 
-0.05000 -0.02300 -0.02300 
0.01550 0.03850 0.02350 
-0.04750 0.07250 -0.08200 
0.01300 0.03850 -0.08800 
-0.03050 0.00100 -0.03900 
0.03200 0.13350 0.02950 
0.00750 0.12250 -0.05650 
-0.03800 0.07300 -0.14100 
-0.05250 -0.00250 -0.06100 
-0.08750 0.05750 -0.08300 
-0.04100 0.04850 -0.04050 
-0.05950 0.03200 -0.16650 
-0.02750 0.01850 -0.13200 
-0.02050 0.11500 -0.06150 
-0.05450 0.07300 -0.03200 
0.01550 0.05600 0.00350 
0.01200 0.09550 0.00400 
0.01600 0.10000 -0.02700 
-0.01550 0.00600 -0.06500 
-0.02750 -0.00350 -0.04000 
-0.02350 0.02550 -0.03200 
-0.00700 0.10750 0.00600 
0.01700 0.06750 -0.06050 
-0.05000 0.11400 0.00050 
-0.07050 0.04550 -0.12000 
0.04000 0.04750 -0.03450 
-0.01550 0.14750 -0.08300 
0.06100 0.04550 -0.10650 
0.06700 0.05150 0.03800 
0.01400 0.01900 -0.03200 
-0.03150 -0.05200 -0.07600 
0.05250 0.11100 0.03850 
-0.03600 -0.02300 0.02450 
-0.02800 0.06650 -0.02100 
0.02950 0.09700 -0.00200 
0.03100 0.08700 -0.05600 
0.14550 0.14900 -0.16050 
-0.04850 0.04450 -0.10750 
-0.01300 0.04050 -0.02750 
0.03300 0.11100 -0.01700 
-0.02400 0.10000 -0.05900 
0.04900 0.06500 -0.02600 
-0.02300 0.09500 -0.08100 
-0.04000 0.01950 -0.04950 
-0.00900 0.15700 -0.07950 
0.12000 0.07400 0.01300 
0.12550 0.03950 0.03150 
-0.02150 0.05100 -0.12050 
0.03700 0.01750 -0.04700 
0.07850 0.04700 -0.00900 
0.13550 0.15600 0.00700 
-0.02600 0.09350 -0.10550 
-0.01150 0.05200 -0.05400 
-0.03950 0.06700 -0.05850 
0.07150 0.04500 -0.05550 
0.06450 0.08000 -0.03000 
0.03450 0.06950 -0.03350 
0.05750 0.19150 -0.00250 
-0.06250 -0.01850 -0.03800 
0.02450 -0.03800 0.01900 
0.03900 0.06550 -0.00700 
-0.05000 0.02300 -0.06050 
0.05050 0.06850 -0.12750 
-0.00500 0.05200 -0.00900 
0.10100 0.06950 0.02850 
-0.01650 -0.00400 -0.03650 
0.01750 0.03800 -0.01850 
0.04800 -0.03550 -0.02500 
0.03900 0.05850 0.05750 
0.04400 0.06450 0.00350 
0.08350 0.11550 -0.03100 
0.17800 0.02050 -0.07550 
0.03550 0.07800 0.07050 
0.05550 0.14300 -0.02800 
0.02050 0.07050 0.02650 
0.03200 0.09950 -0.19900 
-0.02050 0.02750 -0.03000 
-0.04550 -0.00950 -0.01000 
0.01900 0.11000 -0.01950 
-0.07800 0.01650 -0.09950 
0.02950 0.00300 -0.16350 
-0.06800 -0.00400 0.01050 
-0.03950 0.03750 0.01800 
0.07800 0.06800 0.03950 
0.06250 0.06400 0.04400 
-0.09200 0.04450 -0.02900 
0.05500 0.10050 0.06600 
0.01000 0.05250 -0.02650 
0.06000 0.09650 -0.06200 
0.03000 0.10850 -0.09050 
-0.00400 0.04850 0.04300 
0.03200 0.07900 -0.05500 
0.01900 0.08600 0.01800 
0.01250 0.09000 0.03800 
0.07550 0.06150 -0.02700 
0.03600 0.05650 -0.03850 
0.02350 0.04150 -0.08100 
0.01600 0.06200 -0.03100 
-0.00650 0.04900 -0.03200 
0.01600 0.16050 -0.01850 