# vtk DataFile Version 2.0 
Xm, Ym, Zm, Uvecs, timestep 10159 
ASCII 
 
DATASET POLYDATA POINTS 466 float 
  4.483   1.211 -71.945 
  6.373   7.127 -71.710 
  9.508  -1.876 -70.383 
 -6.821   8.764 -72.498 
 -2.635   2.926 -68.835 
  4.152   8.718 -69.924 
  0.570  -0.621 -70.767 
 13.840   5.153 -71.451 
 -1.102  -2.381 -71.682 
  3.501  10.921 -71.889 
  4.191 -11.842 -73.256 
 -0.336   1.886 -67.060 
 -2.774  -0.436 -71.392 
  1.191   6.405 -71.739 
  5.135   3.622 -68.612 
 -1.059  -4.045 -70.593 
 -2.245  -3.062 -71.310 
  1.963   4.077 -69.028 
 -1.073   7.753 -69.165 
 -9.175   5.716 -70.264 
 -4.287 -11.989 -70.090 
 -4.704   7.627 -67.900 
  6.147  12.477 -69.249 
  2.224  12.003 -71.633 
  1.501   7.085 -72.826 
  8.456  -0.432 -72.419 
  5.152   2.708 -66.937 
  4.416   6.320 -72.817 
  0.741   5.761 -66.117 
 -7.785   0.762 -69.395 
 -0.826  10.567 -71.974 
  9.511   3.839 -72.555 
  5.540   3.579 -65.334 
  2.128   7.676 -67.339 
  3.561   7.912 -73.654 
 -0.563  -7.368 -70.609 
  5.336  -0.876 -67.435 
  6.124  -0.084 -69.183 
 -4.034  -3.845 -69.340 
 -2.396   1.309 -67.263 
  6.636  -6.794 -72.326 
 -1.276   8.403 -68.002 
 -4.383   6.085 -59.963 
  1.531   3.180 -65.832 
  8.090  -1.366 -70.705 
 -1.478  -8.814 -73.549 
 -2.343  -4.204 -71.430 
 13.579   3.825 -68.228 
  2.075  -6.472 -70.862 
  3.445  -7.069 -75.043 
  5.014  -2.613 -67.493 
 -7.606   2.184 -73.706 
 -9.992   6.467 -76.716 
 -7.428  -4.439 -66.136 
-10.070   4.118 -68.457 
  9.991   9.780 -68.393 
 -7.361  -1.307 -69.708 
 -8.186  -5.735 -73.171 
 -7.063  -4.149 -73.922 
-13.676   9.136 -69.679 
  7.999  12.125 -70.324 
 -3.582  -8.703 -68.527 
  4.763 -10.097 -70.375 
 16.646   3.602 -68.872 
  1.416   5.999 -66.155 
  1.574   5.201 -67.081 
  3.455  -4.300 -59.696 
  7.150   1.434 -65.710 
-14.026  -3.315 -74.063 
  3.626   5.531 -67.083 
 11.467   1.623 -69.433 
 -5.448  -2.686 -70.478 
  3.506 -10.378 -63.273 
 -8.858  10.387 -67.700 
 14.690   2.503 -71.525 
  9.957   0.885 -65.713 
-13.691  10.108 -70.441 
 -8.507  -3.673 -74.129 
 15.491  -4.261 -69.446 
  4.758  -0.831 -67.047 
 -9.175  10.825 -62.123 
 -8.788   8.615 -65.950 
  6.409   8.615 -62.811 
  1.724  -5.261 -63.736 
 -9.036   8.848 -72.804 
 -1.946  12.727 -63.252 
 -8.659  10.683 -66.093 
 -1.221   3.968 -68.109 
  3.896   8.261 -66.496 
  6.924   2.551 -67.309 
  3.277  -9.556 -63.082 
-11.525  12.365 -66.768 
 -0.218  -6.113 -72.289 
-13.858   6.101 -66.356 
  2.524   1.417 -76.918 
  1.148   5.349 -62.793 
  5.446  -2.019 -67.683 
  8.339  10.201 -73.194 
 13.922 -12.541 -70.136 
 16.537   4.574 -70.132 
 -3.117  -8.366 -71.040 
  0.995   0.676 -65.340 
 11.656  10.495 -74.809 
 14.026   5.723 -66.887 
-10.526   9.017 -67.014 
 14.671   8.934 -71.362 
-14.490  11.787 -71.709 
 -8.144 -11.248 -69.328 
 14.811   6.052 -67.600 
  0.834  -6.490 -64.977 
 -5.559  -7.908 -74.084 
 15.308  -6.729 -74.295 
 -2.095 -12.174 -69.305 
  3.297  -7.482 -65.706 
 -4.111  -5.660 -68.779 
 -4.977   4.713 -74.478 
 12.562   2.672 -67.660 
 12.213  11.767 -67.231 
 -7.966   8.877 -70.185 
 -3.191 -10.924 -75.659 
  8.699   2.606 -68.230 
 12.854  -4.819 -66.682 
  1.228   1.381 -62.900 
  4.316  11.044 -67.127 
 -0.316   1.761 -76.811 
 12.462   5.853 -63.889 
  2.075   3.109 -63.635 
 -0.165   8.768 -72.816 
 -0.301  -2.489 -63.594 
 -6.165   6.045 -70.856 
  2.442   0.042 -68.275 
  7.602  -6.955 -72.775 
 -7.085   2.929 -74.186 
  3.326   6.597 -66.355 
 -8.662  10.052 -72.570 
 13.808   2.295 -68.427 
-13.747   0.365 -77.237 
 -0.941   6.630 -67.802 
 -2.365  -0.238 -65.938 
  2.104  10.417 -67.100 
  1.250  10.679 -61.855 
 -7.314   5.518 -75.632 
  8.461  -0.053 -64.316 
 -1.350   2.009 -75.815 
 -5.380  -3.421 -67.291 
 13.245  -2.157 -70.387 
 -4.594  12.427 -69.858 
  8.686  -6.339 -65.822 
  2.474   3.089 -63.061 
 12.184   5.150 -74.513 
 -7.288  -4.806 -71.773 
  1.224   9.608 -73.227 
 -5.005  12.283 -63.049 
 11.357  -0.606 -67.321 
  8.220   0.390 -64.034 
 -0.162  11.235 -71.556 
 11.787  11.611 -69.278 
-14.578  -1.046 -74.011 
  1.390  -7.950 -70.549 
 12.280 -11.566 -68.753 
 -4.928   6.841 -68.535 
 -0.837   5.697 -70.697 
  4.998  -4.753 -72.723 
 13.140   5.691 -67.886 
  1.778  -3.572 -64.355 
-12.753   7.657 -66.233 
 -5.370  12.195 -69.214 
  4.943   1.501 -75.517 
 -6.115  -3.929 -70.298 
-10.514   3.223 -62.566 
  4.577   7.406 -62.232 
 -3.678   0.047 -68.709 
  3.109   0.566 -64.079 
-11.183  -1.498 -75.752 
 -3.250 -11.611 -69.685 
-10.177   5.212 -62.197 
 -3.988  -6.898 -68.038 
 15.113   5.774 -67.979 
 -9.579   3.526 -65.804 
 -0.461   9.075 -70.017 
 -7.165   0.511 -65.489 
  2.830  -5.767 -66.685 
  9.530   7.319 -63.711 
 -2.864   3.537 -71.784 
 -4.747  -7.774 -63.121 
 -5.947  -8.098 -67.731 
 14.796   3.691 -71.948 
  8.966 -12.101 -71.549 
  8.203   8.472 -69.552 
-14.249  -4.317 -77.647 
 -5.447   9.143 -64.110 
 11.274  -7.238 -70.343 
  2.284   6.050 -74.657 
  9.462   2.824 -70.520 
  9.821  -1.806 -72.358 
  3.843  -8.037 -62.310 
  2.344  -8.107 -61.045 
  9.893   8.773 -75.082 
  4.803  -4.281 -67.227 
-13.878   1.177 -69.290 
 -8.738  -1.695 -74.411 
 -9.757   7.630 -63.537 
  6.777   5.244 -62.329 
 16.346  -0.857 -67.644 
 12.523  -3.942 -70.441 
  9.207 -10.304 -67.936 
 11.232  -1.019 -70.899 
 11.615   8.768 -69.136 
 -2.846  -7.562 -62.776 
 -6.821  11.772 -64.322 
-12.326  11.864 -66.489 
  8.548  12.489 -67.780 
  6.265  12.330 -64.543 
  4.530  -6.466 -72.285 
 -0.723   2.071 -70.344 
-12.861   4.188 -71.065 
 -0.377  10.573 -62.904 
 11.003   3.691 -68.514 
  5.715  -5.297 -69.913 
  7.601   4.107 -72.430 
 -5.455 -11.061 -68.688 
-11.489   6.325 -68.912 
-10.675  -8.419 -73.775 
 -9.434 -10.055 -72.313 
 12.189 -11.913 -71.513 
 -3.252 -10.584 -60.327 
 -5.572   0.364 -76.363 
 13.527   8.789 -73.066 
-11.665   3.186 -75.180 
  8.227  -1.691 -63.719 
  5.869   6.264 -62.658 
 -6.575   5.798 -70.216 
  3.375   0.142 -71.242 
  5.427  10.855 -66.076 
 13.086  10.372 -69.610 
 16.602   1.954 -65.623 
  8.046   2.726 -66.200 
 -3.633   9.534 -68.209 
-10.364  11.067 -64.767 
  4.630  -2.082 -69.115 
  0.235   5.382 -66.302 
 12.108  -9.777 -70.239 
  1.099  -2.459 -73.075 
 13.592 -12.835 -68.559 
  4.550   4.668 -61.206 
  2.365   8.947 -69.749 
  6.816   1.292 -70.629 
-13.072  -7.787 -76.436 
 14.166   2.535 -64.718 
  6.637  -3.918 -71.079 
 16.844   4.879 -66.573 
  4.723   4.550 -65.221 
 10.345   0.888 -74.435 
 -3.080  -4.922 -70.317 
-14.352  -2.630 -67.992 
  4.760   0.602 -71.356 
  5.120   9.245 -66.214 
  6.624   7.141 -65.309 
-11.218  -4.646 -77.877 
 -8.605  -6.824 -71.105 
 -9.244   3.676 -72.377 
 15.496   2.756 -69.187 
  5.986  -1.173 -76.619 
 -7.430   0.453 -62.788 
 -5.174   2.248 -66.522 
 11.449  -1.507 -69.773 
  1.316   3.409 -75.500 
  8.630  12.451 -64.461 
 -9.822   1.048 -76.102 
 11.901  -6.202 -72.010 
-12.099   7.553 -69.337 
-10.707   9.187 -75.314 
 10.071   6.604 -65.772 
 -2.702  11.019 -63.675 
 13.516  -4.571 -71.855 
 11.006  -0.199 -73.540 
 12.776  -3.129 -70.059 
 11.189  -2.827 -69.085 
 -4.779  -9.000 -71.242 
 -4.984  -7.136 -72.400 
-10.665  -4.968 -70.671 
  4.485  10.236 -65.739 
  1.140  -5.412 -69.423 
 10.973  -5.579 -70.800 
  3.107   3.976 -65.730 
 -6.884  12.049 -71.441 
-12.543   5.869 -69.305 
 -9.664  -6.081 -71.629 
 -1.642  -8.251 -72.048 
 12.878  -1.611 -69.526 
  5.777  -8.718 -69.815 
  2.651  -2.058 -68.002 
-11.782  -6.575 -71.767 
  2.226  -1.557 -70.645 
 -0.635  11.279 -72.833 
  4.237   6.319 -70.951 
-10.721   2.406 -63.782 
 -9.762  10.666 -71.451 
  3.603   5.556 -68.280 
 -3.053   5.281 -63.123 
  1.519 -11.459 -71.317 
 -7.128   6.900 -72.976 
  3.088  -8.143 -64.593 
 -7.333  -7.870 -68.753 
  7.514  -4.415 -67.805 
  7.731  -3.492 -75.856 
 -7.665  13.093 -62.983 
 -9.011   0.966 -65.832 
-12.222   9.262 -63.862 
 -3.152   6.111 -63.458 
  8.305  -4.446 -65.880 
 -6.254 -10.881 -67.361 
  7.595   6.116 -74.435 
  1.429  -6.771 -67.584 
 18.196  -7.438 -68.294 
 -2.311 -11.965 -75.466 
 -2.522  -8.468 -60.712 
  1.021  -2.283 -73.937 
 11.965  -1.916 -68.801 
  1.434 -12.496 -67.178 
 -9.046  -1.559 -77.933 
 -8.033 -10.401 -64.390 
  3.296  11.540 -60.789 
 -1.757 -11.216 -70.638 
  0.690   6.045 -67.976 
  6.709 -11.721 -71.811 
 -3.743 -11.230 -65.965 
 13.411  10.039 -64.013 
  1.542   2.029 -75.453 
-14.295  -5.059 -71.485 
  2.597  -8.985 -74.472 
 12.395   0.636 -57.661 
  4.297 -12.124 -75.322 
  1.280   5.463 -67.032 
 13.739  -9.285 -64.778 
  8.229 -10.318 -65.227 
  7.745  -5.702 -61.504 
 -9.020   5.556 -66.424 
 -9.771   3.344 -67.935 
 17.990  -0.288 -68.291 
  5.161   2.593 -75.274 
  5.268   2.504 -67.480 
 17.000   0.178 -67.148 
-15.941   1.084 -74.526 
  4.635  -9.841 -73.805 
-10.227 -10.352 -60.209 
-12.839  10.630 -72.026 
 16.634  -9.851 -68.362 
 13.201  -1.775 -73.903 
 10.208   8.229 -61.085 
 11.681   9.529 -65.233 
  7.225   0.556 -59.937 
 -9.088  -2.557 -69.654 
 -8.056 -10.028 -67.486 
 13.065  -4.172 -64.133 
 -6.448  -4.607 -75.087 
  6.609  -2.088 -76.183 
 -2.596   1.381 -59.404 
 12.009   6.559 -69.472 
 -7.259 -11.726 -75.857 
 -6.292   2.273 -68.573 
 -8.437   3.136 -64.099 
-12.438 -10.718 -73.459 
-11.479   0.498 -69.757 
  1.243  -5.402 -71.227 
 10.518 -12.871 -68.349 
 -0.752  -4.342 -60.608 
 10.892  -0.699 -62.819 
  1.329  -3.580 -66.742 
 15.177   7.571 -76.477 
  4.098   0.438 -71.603 
 13.881  -3.090 -70.462 
 14.058  -8.462 -63.971 
  3.192  10.875 -59.398 
-12.691  11.228 -65.121 
 13.848  -5.320 -69.445 
 -6.875  -3.814 -57.594 
 -9.492   2.665 -71.302 
 13.850  -7.787 -68.782 
  8.069   4.960 -74.707 
  7.846 -11.438 -60.533 
 12.492  12.147 -67.427 
 -6.354   4.658 -77.112 
  7.167 -11.813 -64.927 
 -5.799  11.890 -61.620 
 10.016 -13.072 -71.131 
 -3.217 -10.331 -65.488 
 14.820  11.662 -73.087 
 -3.994 -13.018 -66.314 
 -2.816   4.717 -64.966 
  0.962  -0.871 -75.152 
 16.477  -4.535 -71.337 
 -6.401  10.474 -60.581 
 14.513  12.214 -74.648 
 -9.479   9.409 -74.273 
-15.428   2.112 -76.487 
 14.411  -6.946 -67.757 
 16.939 -10.763 -78.513 
 18.473  -9.338 -69.657 
 -9.454 -10.337 -64.894 
 17.151  -6.130 -69.324 
 11.858  13.194 -63.237 
  7.062  -1.637 -61.653 
 -6.104 -12.204 -67.399 
 -3.761  -5.761 -74.663 
  0.295   3.439 -71.014 
 10.641   2.500 -65.768 
 -9.543  -7.780 -63.737 
 -5.386 -10.590 -66.119 
 -0.637   6.066 -60.046 
 -4.486   0.762 -75.221 
  3.280   8.419 -75.293 
  1.020   7.440 -75.420 
 15.485   4.906 -71.828 
-14.347   5.421 -73.942 
 -3.599  -3.915 -65.094 
-11.852   4.230 -75.767 
 12.627   3.978 -61.445 
  2.105  11.520 -74.737 
  0.522   7.654 -74.831 
 11.575  -9.160 -62.695 
 16.374  -7.577 -70.466 
 -2.470   8.475 -65.876 
 14.460  10.054 -63.023 
 13.973   5.976 -66.639 
-13.041   3.530 -77.361 
 14.519   0.008 -64.356 
  8.201  11.858 -63.255 
 -5.775   0.938 -73.835 
  7.965  10.902 -60.706 
  5.261  -7.642 -73.104 
  4.228  -4.906 -65.434 
  9.785  -3.744 -66.887 
  5.005  11.814 -67.204 
  0.326  -1.049 -74.897 
  1.723   6.090 -63.695 
  6.651   4.122 -74.583 
 -5.495  -2.856 -69.018 
 -9.640   3.034 -71.114 
 -8.497   2.283 -65.995 
  1.372  -6.155 -74.946 
 -9.933  10.676 -69.258 
-13.785  -5.487 -73.226 
  4.034  -7.947 -68.881 
 -1.860  11.019 -64.873 
-13.477  -5.191 -74.357 
-12.584  -0.540 -65.417 
 -3.050   1.091 -77.108 
  1.865  -6.682 -67.338 
 -3.029   4.968 -57.776 
  9.075   4.400 -71.909 
 -3.830   9.008 -65.280 
 10.501 -13.316 -69.052 
  6.223  -9.848 -72.877 
-13.605  -2.449 -73.391 
 13.068   4.568 -62.634 
 -7.571   7.543 -66.142 
 13.234  -0.656 -74.203 
 16.520   8.431 -67.996 
-10.016  -0.603 -73.427 
 -7.378  -7.005 -63.756 
 -0.044  -3.351 -71.202 
-13.231   1.960 -70.642 
  6.753  11.530 -70.511 
-11.783   1.704 -66.200 
 -1.456   1.728 -62.719 

 VERTICES 466 932 
1 0 
1 1 
1 2 
1 3 
1 4 
1 5 
1 6 
1 7 
1 8 
1 9 
1 10 
1 11 
1 12 
1 13 
1 14 
1 15 
1 16 
1 17 
1 18 
1 19 
1 20 
1 21 
1 22 
1 23 
1 24 
1 25 
1 26 
1 27 
1 28 
1 29 
1 30 
1 31 
1 32 
1 33 
1 34 
1 35 
1 36 
1 37 
1 38 
1 39 
1 40 
1 41 
1 42 
1 43 
1 44 
1 45 
1 46 
1 47 
1 48 
1 49 
1 50 
1 51 
1 52 
1 53 
1 54 
1 55 
1 56 
1 57 
1 58 
1 59 
1 60 
1 61 
1 62 
1 63 
1 64 
1 65 
1 66 
1 67 
1 68 
1 69 
1 70 
1 71 
1 72 
1 73 
1 74 
1 75 
1 76 
1 77 
1 78 
1 79 
1 80 
1 81 
1 82 
1 83 
1 84 
1 85 
1 86 
1 87 
1 88 
1 89 
1 90 
1 91 
1 92 
1 93 
1 94 
1 95 
1 96 
1 97 
1 98 
1 99 
1 100 
1 101 
1 102 
1 103 
1 104 
1 105 
1 106 
1 107 
1 108 
1 109 
1 110 
1 111 
1 112 
1 113 
1 114 
1 115 
1 116 
1 117 
1 118 
1 119 
1 120 
1 121 
1 122 
1 123 
1 124 
1 125 
1 126 
1 127 
1 128 
1 129 
1 130 
1 131 
1 132 
1 133 
1 134 
1 135 
1 136 
1 137 
1 138 
1 139 
1 140 
1 141 
1 142 
1 143 
1 144 
1 145 
1 146 
1 147 
1 148 
1 149 
1 150 
1 151 
1 152 
1 153 
1 154 
1 155 
1 156 
1 157 
1 158 
1 159 
1 160 
1 161 
1 162 
1 163 
1 164 
1 165 
1 166 
1 167 
1 168 
1 169 
1 170 
1 171 
1 172 
1 173 
1 174 
1 175 
1 176 
1 177 
1 178 
1 179 
1 180 
1 181 
1 182 
1 183 
1 184 
1 185 
1 186 
1 187 
1 188 
1 189 
1 190 
1 191 
1 192 
1 193 
1 194 
1 195 
1 196 
1 197 
1 198 
1 199 
1 200 
1 201 
1 202 
1 203 
1 204 
1 205 
1 206 
1 207 
1 208 
1 209 
1 210 
1 211 
1 212 
1 213 
1 214 
1 215 
1 216 
1 217 
1 218 
1 219 
1 220 
1 221 
1 222 
1 223 
1 224 
1 225 
1 226 
1 227 
1 228 
1 229 
1 230 
1 231 
1 232 
1 233 
1 234 
1 235 
1 236 
1 237 
1 238 
1 239 
1 240 
1 241 
1 242 
1 243 
1 244 
1 245 
1 246 
1 247 
1 248 
1 249 
1 250 
1 251 
1 252 
1 253 
1 254 
1 255 
1 256 
1 257 
1 258 
1 259 
1 260 
1 261 
1 262 
1 263 
1 264 
1 265 
1 266 
1 267 
1 268 
1 269 
1 270 
1 271 
1 272 
1 273 
1 274 
1 275 
1 276 
1 277 
1 278 
1 279 
1 280 
1 281 
1 282 
1 283 
1 284 
1 285 
1 286 
1 287 
1 288 
1 289 
1 290 
1 291 
1 292 
1 293 
1 294 
1 295 
1 296 
1 297 
1 298 
1 299 
1 300 
1 301 
1 302 
1 303 
1 304 
1 305 
1 306 
1 307 
1 308 
1 309 
1 310 
1 311 
1 312 
1 313 
1 314 
1 315 
1 316 
1 317 
1 318 
1 319 
1 320 
1 321 
1 322 
1 323 
1 324 
1 325 
1 326 
1 327 
1 328 
1 329 
1 330 
1 331 
1 332 
1 333 
1 334 
1 335 
1 336 
1 337 
1 338 
1 339 
1 340 
1 341 
1 342 
1 343 
1 344 
1 345 
1 346 
1 347 
1 348 
1 349 
1 350 
1 351 
1 352 
1 353 
1 354 
1 355 
1 356 
1 357 
1 358 
1 359 
1 360 
1 361 
1 362 
1 363 
1 364 
1 365 
1 366 
1 367 
1 368 
1 369 
1 370 
1 371 
1 372 
1 373 
1 374 
1 375 
1 376 
1 377 
1 378 
1 379 
1 380 
1 381 
1 382 
1 383 
1 384 
1 385 
1 386 
1 387 
1 388 
1 389 
1 390 
1 391 
1 392 
1 393 
1 394 
1 395 
1 396 
1 397 
1 398 
1 399 
1 400 
1 401 
1 402 
1 403 
1 404 
1 405 
1 406 
1 407 
1 408 
1 409 
1 410 
1 411 
1 412 
1 413 
1 414 
1 415 
1 416 
1 417 
1 418 
1 419 
1 420 
1 421 
1 422 
1 423 
1 424 
1 425 
1 426 
1 427 
1 428 
1 429 
1 430 
1 431 
1 432 
1 433 
1 434 
1 435 
1 436 
1 437 
1 438 
1 439 
1 440 
1 441 
1 442 
1 443 
1 444 
1 445 
1 446 
1 447 
1 448 
1 449 
1 450 
1 451 
1 452 
1 453 
1 454 
1 455 
1 456 
1 457 
1 458 
1 459 
1 460 
1 461 
1 462 
1 463 
1 464 
1 465 
POINT_DATA 466 
SCALARS MeanU double 1 
LOOKUP_TABLE default
0.19391 
0.12427 
0.34758 
0.19847 
0.17868 
0.01014 
0.19999 
0.16878 
0.21216 
0.08739 
0.12980 
0.12292 
0.22139 
0.13562 
0.27815 
0.21231 
0.14617 
0.11107 
0.12956 
0.18462 
0.13724 
0.09005 
0.10710 
0.14647 
0.20581 
0.29030 
0.20836 
0.14665 
0.12643 
0.18528 
0.06223 
0.20438 
0.21131 
0.07691 
0.08235 
0.12018 
0.09714 
0.19563 
0.22076 
0.16423 
0.19683 
0.07999 
0.17626 
0.12536 
0.36032 
0.11607 
0.13597 
0.11573 
0.15847 
0.12421 
0.15673 
0.19775 
0.10696 
0.19892 
0.12627 
0.06670 
0.15155 
0.10783 
0.09309 
0.16295 
0.08081 
0.05278 
0.09282 
0.14123 
0.12500 
0.13358 
0.21670 
0.14980 
0.20571 
0.13798 
0.11056 
0.24223 
0.12725 
0.11347 
0.15560 
0.21040 
0.25395 
0.10148 
0.14908 
0.09299 
0.12459 
0.07467 
0.07837 
0.21942 
0.20102 
0.11936 
0.08638 
0.18738 
0.09232 
0.22029 
0.05573 
0.10389 
0.16185 
0.24679 
0.16843 
0.20426 
0.15705 
0.13784 
0.11503 
0.14860 
0.27663 
0.15098 
0.22756 
0.10709 
0.05947 
0.22593 
0.24936 
0.16529 
0.12378 
0.24139 
0.11884 
0.16105 
0.08923 
0.07504 
0.18815 
0.19360 
0.04896 
0.09824 
0.11265 
0.10783 
0.17408 
0.27667 
0.11650 
0.06305 
0.21988 
0.07252 
0.18043 
0.05444 
0.31467 
0.21508 
0.23058 
0.21461 
0.15788 
0.10549 
0.16627 
0.12431 
0.16290 
0.17271 
0.24769 
0.09845 
0.16248 
0.10767 
0.22686 
0.24729 
0.26140 
0.13048 
0.11354 
0.25261 
0.17850 
0.20144 
0.17147 
0.08748 
0.12416 
0.23817 
0.27285 
0.09192 
0.14533 
0.20173 
0.11501 
0.10502 
0.15745 
0.19374 
0.13887 
0.09155 
0.28025 
0.17161 
0.09182 
0.20211 
0.21435 
0.12845 
0.07912 
0.29594 
0.09824 
0.11151 
0.08195 
0.20716 
0.21122 
0.12738 
0.21028 
0.08922 
0.18326 
0.31022 
0.10385 
0.23152 
0.20855 
0.13414 
0.13909 
0.08512 
0.08880 
0.11560 
0.08223 
0.08850 
0.17805 
0.19095 
0.29334 
0.11821 
0.23502 
0.19554 
0.29877 
0.16621 
0.10900 
0.09345 
0.08869 
0.11200 
0.17268 
0.12735 
0.21437 
0.07700 
0.20529 
0.10745 
0.08581 
0.20636 
0.09157 
0.11744 
0.15783 
0.12162 
0.07383 
0.16223 
0.33454 
0.24161 
0.06908 
0.14521 
0.18216 
0.22717 
0.07995 
0.05890 
0.10975 
0.26278 
0.16785 
0.25882 
0.05163 
0.20633 
0.17777 
0.04182 
0.18395 
0.12644 
0.09012 
0.07676 
0.08757 
0.23654 
0.08260 
0.11320 
0.18041 
0.08557 
0.17220 
0.05603 
0.28777 
0.10075 
0.09558 
0.36591 
0.13908 
0.15668 
0.29291 
0.22451 
0.20841 
0.22268 
0.04952 
0.16352 
0.10884 
0.18673 
0.18011 
0.14558 
0.19355 
0.15126 
0.13644 
0.23052 
0.19195 
0.18039 
0.13518 
0.15681 
0.23349 
0.18095 
0.11968 
0.07735 
0.12179 
0.19099 
0.15381 
0.33804 
0.25766 
0.23275 
0.03385 
0.05976 
0.21441 
0.24608 
0.23019 
0.11289 
0.16416 
0.07880 
0.09233 
0.16390 
0.14548 
0.25584 
0.06122 
0.22697 
0.06688 
0.15346 
0.22785 
0.05454 
0.16024 
0.12144 
0.13747 
0.21480 
0.16274 
0.17865 
0.27394 
0.22871 
0.13468 
0.17068 
0.05610 
0.15875 
0.23089 
0.16208 
0.09559 
0.08990 
0.14383 
0.14801 
0.21797 
0.14757 
0.22855 
0.15295 
0.08496 
0.11874 
0.11001 
0.08098 
0.08473 
0.12185 
0.29382 
0.07799 
0.24134 
0.20929 
0.11838 
0.11193 
0.11848 
0.12130 
0.08121 
0.20476 
0.35587 
0.12918 
0.21498 
0.14914 
0.19233 
0.21846 
0.16236 
0.19579 
0.17105 
0.19195 
0.22826 
0.09101 
0.22750 
0.08140 
0.03168 
0.12403 
0.11024 
0.19609 
0.20816 
0.15992 
0.23639 
0.08739 
0.10568 
0.07988 
0.19910 
0.20466 
0.15909 
0.21162 
0.23184 
0.10819 
0.24871 
0.20548 
0.25781 
0.16664 
0.20478 
0.11305 
0.11168 
0.13552 
0.08598 
0.19162 
0.18770 
0.22322 
0.12694 
0.19193 
0.05386 
0.14089 
0.13007 
0.06966 
0.15304 
0.19072 
0.22770 
0.14024 
0.07833 
0.18055 
0.18204 
0.10487 
0.15169 
0.07621 
0.18181 
0.19016 
0.09982 
0.05811 
0.08325 
0.08325 
0.12088 
0.11500 
0.24304 
0.12102 
0.16744 
0.22706 
0.08538 
0.09511 
0.21882 
0.16012 
0.13477 
0.11344 
0.14599 
0.13876 
0.14461 
0.29907 
0.08958 
0.04467 
0.22278 
0.05536 
0.06388 
0.10431 
0.07147 
0.30139 
0.14105 
0.21293 
0.04492 
0.10397 
0.14576 
0.09335 
0.09956 
0.28587 
0.27810 
0.11708 
0.16293 
0.17217 
0.14170 
0.20288 
0.18588 
0.14472 
0.06263 
0.07810 
0.13352 
0.17224 
0.07809 
0.18625 
0.16263 
0.16744 
0.15320 
0.13498 
0.18991 
0.17278 
0.08157 
0.13419 
0.26628 
0.09709 
0.08757 
0.26950 
0.22066 
0.16266 
0.24435 
0.26373 
0.19534 
0.10723 
0.20625 
0.28967 

 VECTORS Umean float 
0.09550 0.10700 -0.13050 
0.06450 0.07100 -0.07900 
0.04850 0.08700 -0.33300 
-0.00250 0.13550 -0.14500 
0.03600 0.12250 -0.12500 
-0.00050 -0.00550 -0.00850 
0.09500 0.15800 -0.07750 
0.01150 0.14200 -0.09050 
0.02800 0.16800 -0.12650 
-0.04700 -0.07350 0.00500 
0.09800 0.08500 0.00450 
0.02500 0.11850 -0.02100 
0.01100 0.17550 -0.13450 
-0.00900 0.02750 -0.13250 
0.08050 0.11100 -0.24200 
0.05600 0.09950 -0.17900 
-0.00000 0.14600 -0.00700 
0.05800 0.01800 -0.09300 
-0.07700 0.04700 -0.09300 
0.03950 0.11550 -0.13850 
0.11050 0.05500 -0.06000 
-0.05550 0.06050 -0.03700 
-0.01600 -0.09700 0.04250 
-0.12850 -0.06950 -0.01050 
0.02500 0.12950 -0.15800 
0.09850 0.10400 -0.25250 
-0.02350 0.08450 -0.18900 
0.03750 0.05300 -0.13150 
0.04300 0.05850 -0.10350 
0.05100 0.13850 -0.11200 
-0.04950 0.03650 0.00950 
0.12550 0.03000 -0.15850 
-0.00650 0.11600 -0.17650 
-0.01450 0.00200 -0.07550 
0.07100 0.02950 -0.02950 
0.04300 0.06900 -0.08850 
0.05200 -0.00300 -0.08200 
0.07300 0.03000 -0.17900 
0.07900 0.10650 -0.17650 
0.04850 0.09550 -0.12450 
0.06850 0.05700 -0.17550 
-0.05600 0.04950 -0.02850 
0.10700 0.09600 0.10200 
0.09900 0.05800 -0.05050 
0.17550 0.07750 -0.30500 
0.06750 0.03550 -0.08750 
-0.01400 0.12950 -0.03900 
0.02350 0.08750 -0.07200 
0.11850 0.06950 -0.07900 
0.08800 0.03350 -0.08100 
0.07650 0.03400 -0.13250 
0.12150 0.11850 -0.10150 
0.06450 0.04500 -0.07250 
0.16300 0.09600 -0.06150 
0.11750 0.04300 -0.01700 
0.05600 -0.03200 0.01700 
0.04400 0.09950 -0.10550 
0.03500 0.03150 -0.09700 
-0.06400 0.05000 -0.04550 
0.02750 0.13200 -0.09150 
0.01000 -0.04250 0.06800 
-0.03050 0.00250 -0.04300 
0.08000 0.04600 -0.01000 
0.05100 0.12100 -0.05200 
0.01800 0.05250 -0.11200 
0.03250 0.02800 -0.12650 
0.06250 0.13450 -0.15800 
-0.01600 0.07700 -0.12750 
-0.01700 0.19000 -0.07700 
0.02600 -0.00100 -0.13550 
-0.02850 0.06600 -0.08400 
0.02150 0.10650 -0.21650 
-0.03800 0.05650 0.10750 
-0.01700 0.05550 -0.09750 
0.03350 0.14400 -0.04850 
0.07950 0.15500 -0.11800 
0.07750 0.17050 -0.17150 
0.01600 0.04700 -0.08850 
0.07600 0.00800 -0.12800 
0.06800 0.02450 -0.05850 
0.01900 0.12150 0.02000 
-0.03350 0.03300 -0.05800 
0.05850 0.04300 0.02950 
0.00900 -0.02750 -0.21750 
-0.02800 0.14200 -0.13950 
-0.07050 0.03800 0.08850 
-0.01400 0.07300 -0.04400 
0.06700 0.04150 -0.17000 
0.02700 0.01500 -0.08700 
-0.00900 0.05150 -0.21400 
-0.02300 0.03250 -0.03900 
0.05900 0.08550 0.00150 
0.06050 0.07150 -0.13200 
0.01700 0.19250 0.15350 
0.10150 0.10650 -0.08200 
-0.02000 0.09350 -0.18050 
0.04650 -0.00150 -0.15000 
0.04950 -0.02050 -0.12700 
0.07650 -0.03000 -0.08050 
0.08100 0.11000 -0.05850 
0.16050 0.03850 -0.22200 
0.07900 -0.03050 -0.12500 
0.11350 0.06700 -0.18550 
0.04150 0.09250 -0.03450 
-0.01850 0.01300 -0.05500 
0.09700 0.05500 -0.19650 
0.03950 0.19250 -0.15350 
0.11600 0.09200 0.07350 
0.05450 0.09600 -0.05600 
0.00300 0.03000 -0.23950 
-0.00850 0.01900 -0.11700 
-0.02900 -0.01150 -0.15800 
0.06650 0.05250 -0.02800 
-0.02700 0.04850 -0.05050 
0.06500 0.13650 -0.11200 
0.06600 0.10800 -0.14650 
0.00100 0.04050 -0.02750 
0.08000 0.03300 0.04650 
-0.04150 0.05600 -0.08850 
0.07200 0.07200 -0.03550 
0.03200 -0.01450 -0.17050 
0.06400 0.10100 -0.24950 
0.00150 -0.06450 -0.09700 
-0.02350 0.04650 0.03550 
0.06750 0.04200 -0.20500 
0.02550 0.04850 -0.04750 
0.04850 0.04450 -0.16800 
0.02550 0.04800 0.00300 
0.14950 0.11250 -0.25300 
0.05750 0.16300 -0.12800 
0.13950 0.16500 -0.08050 
0.03900 0.03850 -0.20750 
0.13250 0.07150 -0.04750 
0.04400 0.02700 -0.09200 
-0.00150 0.12850 -0.10550 
-0.02600 0.10600 -0.05950 
0.03550 0.15400 -0.03950 
0.09000 0.08700 -0.11900 
0.15950 0.09750 -0.16250 
-0.07400 -0.03200 0.05650 
0.06200 0.12450 -0.08400 
0.06200 0.05650 -0.06750 
0.13200 0.04050 -0.18000 
0.06350 0.09100 -0.22100 
0.11850 0.04800 -0.22800 
0.03300 0.08750 -0.09100 
-0.10350 0.04650 0.00400 
0.11850 0.04500 -0.21850 
-0.04350 0.03000 -0.17050 
0.06100 0.09200 -0.16850 
0.07900 0.03750 -0.14750 
0.03150 0.06600 -0.04800 
-0.03650 0.08900 0.07850 
0.07200 0.04750 -0.22200 
0.08700 0.09250 -0.24150 
-0.07900 0.04700 -0.00000 
0.11450 -0.02950 -0.08450 
0.02150 0.13700 -0.14650 
0.06400 0.02400 -0.09250 
0.03900 -0.06350 -0.07400 
-0.00350 0.09300 -0.12700 
0.08100 0.08050 -0.15650 
0.10750 0.02900 -0.08300 
0.03250 0.08200 -0.02450 
0.07650 0.00750 -0.26950 
-0.08650 0.10800 -0.10150 
-0.06450 0.06450 0.01050 
0.08400 0.08500 -0.16300 
0.10700 0.13600 -0.12650 
0.07800 0.09800 -0.02850 
0.06700 0.03850 -0.01700 
0.10550 0.17750 -0.21200 
0.09200 0.02200 -0.02650 
0.01500 0.08250 -0.07350 
0.06500 0.03950 -0.03050 
0.11300 0.16700 0.04750 
0.04200 0.04050 -0.20300 
0.03650 0.10200 -0.06700 
0.19300 0.05300 -0.06450 
-0.01850 0.08100 -0.03250 
0.15500 0.08600 -0.04650 
0.10850 -0.04250 -0.28750 
0.07200 0.01650 0.07300 
0.05900 0.14450 -0.17100 
0.11050 0.01150 -0.17650 
0.08050 0.06800 -0.08300 
-0.00150 0.12450 -0.06200 
0.07250 0.02700 -0.03550 
0.04750 -0.02700 -0.07000 
-0.03800 0.09600 -0.05200 
-0.00650 0.07950 -0.02000 
0.07400 0.01000 -0.04750 
0.01650 0.10200 -0.14500 
0.09200 0.05650 -0.15750 
0.10800 0.06450 -0.26500 
-0.02750 0.07850 -0.08400 
-0.05800 0.09050 -0.20900 
0.11850 0.05500 -0.14550 
0.09550 0.03000 -0.28150 
0.12900 0.06200 -0.08450 
0.01000 0.10050 -0.04100 
0.04000 0.07050 -0.04650 
0.02200 -0.02400 -0.08250 
-0.07200 0.08550 -0.00700 
0.06350 0.04550 -0.15400 
0.12400 -0.01700 -0.02350 
0.16850 -0.00250 -0.13250 
0.01450 0.06650 -0.03600 
0.00650 0.02200 -0.20400 
-0.07050 0.07950 0.01600 
0.06850 0.02450 -0.04550 
-0.09500 -0.13250 0.12650 
-0.03650 -0.00900 0.08350 
0.08050 -0.00150 -0.08550 
0.04150 0.06750 -0.13650 
0.06350 0.06950 -0.07700 
-0.00850 0.03300 -0.06550 
0.11950 -0.01250 -0.10900 
0.23800 0.06650 -0.22550 
0.10300 0.10350 -0.19250 
0.03600 0.04550 -0.03750 
0.01200 0.03850 -0.13950 
0.10400 0.07650 -0.12850 
0.18400 0.12350 -0.05000 
0.04200 -0.02800 -0.06200 
-0.04750 0.02700 -0.02200 
-0.00050 0.07350 -0.08150 
0.13950 0.14900 -0.16550 
0.07150 0.01050 -0.15150 
0.10000 0.03250 -0.23650 
0.02800 -0.01900 -0.03900 
0.05300 0.15850 -0.12100 
0.12400 0.11100 -0.06250 
-0.01050 0.01850 0.03600 
0.12350 -0.13550 -0.01500 
-0.10000 0.06950 -0.03400 
-0.01000 0.00350 -0.08950 
-0.04800 0.03650 0.04750 
0.03750 0.07850 -0.01000 
0.09950 0.14300 -0.16000 
0.04400 0.04250 -0.05550 
0.07500 -0.03550 -0.07700 
0.09800 0.08100 -0.12800 
0.06600 -0.03750 -0.03950 
-0.00050 -0.03550 -0.16850 
-0.05450 0.00050 -0.01300 
0.09300 0.11250 -0.24800 
-0.01300 0.08650 -0.05000 
-0.00100 0.09500 0.01050 
0.22400 0.06250 -0.28250 
0.03000 0.09350 -0.09850 
0.08650 0.10250 -0.08100 
0.17250 0.06000 -0.22900 
-0.01850 0.17250 -0.14250 
0.12650 0.16550 0.00650 
0.12100 0.13900 -0.12500 
0.00100 0.04650 0.01700 
0.14050 0.08350 0.00500 
0.04250 0.07450 -0.06700 
0.09200 0.16100 -0.02200 
0.05200 0.16750 -0.04100 
0.01300 0.13200 -0.06000 
0.09800 0.03100 -0.16400 
0.11400 0.01350 -0.09850 
0.02650 0.08300 -0.10500 
0.09900 0.05950 -0.19950 
0.05300 0.06800 -0.17150 
0.01100 -0.01950 0.17900 
0.04500 0.07300 -0.10450 
0.10700 0.03550 -0.10900 
-0.02500 0.06950 -0.22150 
0.04600 0.14600 -0.09650 
0.10900 -0.00950 -0.04850 
-0.07650 0.01100 -0.00300 
0.03000 0.04150 -0.11050 
0.11800 0.02550 -0.14800 
0.09150 0.07200 -0.10050 
0.14700 -0.02350 -0.30350 
0.20350 0.13600 -0.08050 
0.09100 0.10450 -0.18700 
0.01300 0.00400 -0.03100 
-0.00850 0.05450 0.02300 
0.09500 0.07950 -0.17500 
0.05100 -0.04750 -0.23600 
0.15550 0.06450 -0.15700 
0.01800 0.11100 -0.01000 
0.14900 0.06250 -0.02900 
0.02000 0.07200 -0.02500 
0.02200 0.04050 -0.08000 
0.06850 0.10250 -0.10800 
0.11750 0.02350 -0.08250 
0.13350 0.09600 -0.19600 
0.00950 0.04150 -0.04400 
0.12550 0.14450 -0.12200 
-0.04500 0.04800 -0.01200 
0.01750 0.06150 -0.13950 
0.17550 0.12650 0.07150 
0.00650 0.04000 -0.03650 
0.03550 0.05300 -0.14700 
0.08900 0.07950 -0.02250 
0.11550 0.07450 -0.00250 
0.03900 0.12400 -0.17100 
0.02500 0.13950 -0.08000 
0.10750 0.14200 -0.01400 
0.17700 0.09250 -0.18750 
0.06900 0.07700 -0.20400 
-0.07600 0.11100 0.00650 
0.11950 0.10950 -0.05350 
0.02700 0.03350 -0.03600 
0.14250 0.06950 -0.00800 
0.13400 0.02750 -0.18600 
0.11100 0.11800 0.00500 
0.08200 0.04900 0.00350 
-0.01750 0.01950 -0.08600 
0.02400 -0.06000 -0.12850 
0.11750 0.07450 -0.05050 
-0.09500 0.02150 -0.19500 
0.07400 0.02600 -0.12500 
0.09400 0.02350 -0.20700 
0.11950 -0.06750 -0.06750 
0.05650 0.00750 -0.06300 
0.08200 0.02550 -0.08200 
-0.04750 0.04950 0.08600 
0.04050 0.04350 -0.05500 
0.02250 0.05200 -0.06300 
0.09700 0.06350 -0.03750 
0.22200 0.01350 -0.19200 
-0.00500 -0.05700 0.05300 
0.02700 0.08950 -0.22250 
0.11300 0.10950 -0.13800 
0.05800 0.05550 -0.08700 
0.08400 0.07200 0.01700 
0.11150 0.01650 -0.03650 
0.01850 0.03550 -0.11450 
0.07700 0.02100 -0.01500 
0.17450 -0.04650 -0.09650 
0.17550 0.09700 -0.29400 
0.06600 0.05750 -0.09500 
0.15350 0.15050 0.00150 
-0.04300 0.13450 -0.04800 
0.05050 0.04900 -0.17900 
0.03600 0.08500 -0.19800 
-0.00750 0.12650 -0.10150 
0.07850 0.17700 -0.02900 
0.05800 0.03300 -0.15750 
-0.00500 -0.04300 -0.18700 
0.07750 0.17200 -0.12850 
0.00150 -0.04850 -0.07700 
0.11050 0.07900 -0.18250 
0.00250 0.05950 0.05550 
0.00100 0.02950 0.01150 
0.03900 0.09750 -0.06600 
0.08850 0.05500 -0.03600 
0.13850 0.13800 0.01500 
0.09700 -0.00800 -0.18400 
0.06500 0.09950 -0.10700 
0.03550 0.03550 -0.23100 
0.04550 0.03750 -0.06450 
0.01750 0.08450 -0.06100 
0.00700 0.01300 -0.07850 
0.07750 0.17700 -0.04800 
0.19800 0.04150 0.03100 
0.08050 0.10850 -0.08400 
0.15500 0.12450 -0.07250 
0.14850 0.05600 -0.16900 
0.03000 -0.02000 -0.10200 
0.08000 0.02650 -0.23400 
-0.05250 -0.05100 -0.19200 
0.10950 0.07050 -0.22250 
0.07150 0.07500 -0.13050 
0.14450 0.11650 -0.08650 
0.02650 0.08750 -0.06650 
0.06350 0.02800 -0.08750 
0.03050 0.08200 0.10350 
0.08100 -0.02400 -0.01600 
0.10050 0.00700 -0.16300 
0.04150 -0.00450 -0.18300 
0.12350 0.17650 -0.05850 
0.06900 -0.05200 -0.09300 
0.11300 0.02850 -0.15250 
0.00800 -0.05250 0.00900 
0.13700 -0.01800 -0.02750 
-0.00950 0.09800 -0.08500 
0.05950 -0.01250 0.03400 
-0.01850 0.14600 0.04200 
0.14100 0.09400 -0.08750 
0.05400 -0.00950 -0.22100 
0.08250 0.10000 0.05350 
0.03950 -0.04500 -0.05050 
0.09600 0.06150 -0.14000 
0.01750 -0.00850 -0.18100 
0.01700 0.01000 -0.10300 
0.10550 0.09950 -0.04450 
-0.04900 -0.02650 -0.05200 
-0.00550 0.15900 -0.08800 
0.03100 0.18250 -0.04350 
0.07200 0.01250 -0.06800 
0.04750 -0.00800 -0.03250 
-0.04300 -0.04000 -0.05900 
0.05950 0.05450 -0.02050 
0.01350 -0.02250 -0.11800 
0.01700 -0.04250 0.10550 
0.16300 0.07700 -0.16300 
0.10350 0.06050 0.01650 
0.08550 0.05000 -0.13500 
0.06000 0.09250 -0.19850 
0.01300 0.07200 -0.04400 
0.06150 0.02900 -0.06650 
0.19500 0.08950 -0.04300 
0.03050 0.15550 -0.02300 
0.06850 0.11300 -0.02650 