# vtk DataFile Version 2.0 
Xm, Ym, Zm, Uvecs, timestep 10117 
ASCII 
 
DATASET POLYDATA POINTS 496 float 
  5.813   1.483 -71.608 
  5.030   0.878 -71.366 
  1.183  10.161 -69.689 
 -9.762   1.216 -71.993 
  9.587   2.462 -71.058 
 -1.236   4.105 -70.307 
 -7.599   0.932 -67.686 
 -0.068   7.213 -68.301 
 -0.071   5.626 -76.535 
 -1.218   5.248 -71.902 
 -6.839   3.711 -69.734 
  1.216  -6.899 -70.170 
  8.832  -0.346 -68.632 
 -1.539   9.991 -68.619 
  4.966   1.614 -70.612 
  1.644   7.630 -67.793 
 -7.616   0.606 -75.341 
  1.252  10.731 -67.547 
 -1.298  11.771 -67.647 
 -8.962   8.400 -69.878 
 -4.731   3.353 -71.391 
  5.625  10.535 -72.861 
  6.756  -1.369 -71.516 
  9.408  11.339 -70.574 
  4.925  -3.684 -72.440 
  1.860   5.217 -70.262 
  1.847   0.785 -68.810 
 -6.583  -3.686 -72.906 
 -2.894   2.420 -69.242 
 -6.904  -0.480 -75.236 
-10.630   5.543 -68.386 
  4.843  -7.533 -70.830 
  5.521   8.787 -73.871 
  1.372   9.143 -66.618 
  0.599   8.400 -69.292 
-16.041  -8.912 -74.201 
 -2.912   6.907 -68.761 
 10.047  -1.017 -68.178 
 -3.040  -1.446 -67.187 
 -4.201   9.747 -67.970 
 -4.178   0.703 -67.114 
  4.598   7.336 -71.885 
 -0.592   2.833 -65.834 
  8.602   1.864 -66.727 
 -5.716   6.745 -72.321 
-11.843   5.360 -72.668 
 -2.592  -4.642 -60.657 
 -5.152   6.912 -73.922 
 -0.686  11.766 -65.912 
 -0.561   2.157 -71.945 
 -7.451  11.293 -68.872 
  1.529  11.567 -65.614 
 -6.576  -1.218 -68.905 
 -3.910   9.861 -62.296 
-13.078  -2.882 -66.900 
  4.085   6.098 -66.520 
  0.494  11.895 -69.272 
 -2.792  -0.866 -63.582 
 -3.156   8.439 -63.844 
-13.438  -5.938 -73.132 
  6.552  -3.990 -69.271 
  8.842   6.802 -68.492 
 -0.603   5.152 -66.847 
  6.928   8.156 -65.316 
  3.115  -7.080 -66.763 
 -5.980  -0.237 -64.375 
-10.494  10.545 -69.160 
  8.408   1.420 -70.767 
  3.670   1.873 -64.807 
 -7.633   4.356 -69.987 
  9.256  -2.281 -62.441 
-10.774  -5.899 -67.070 
  0.476   0.106 -63.327 
 -1.695  -2.645 -66.692 
  3.565  12.147 -70.061 
  0.591   7.706 -68.338 
 15.133   3.073 -68.352 
-14.842  -3.785 -70.530 
 -4.496   6.357 -65.040 
  0.422  -5.601 -73.428 
 -6.482   8.189 -62.615 
  0.702   6.158 -63.286 
 -6.042 -11.947 -70.403 
 15.362   5.152 -71.279 
 -6.665  -1.797 -66.029 
  9.727  -1.762 -67.273 
 -4.848  -4.005 -66.460 
  9.377  -3.133 -69.080 
  8.014   4.394 -65.396 
  8.509   4.957 -68.792 
 -5.850   7.285 -63.239 
 -0.799  11.909 -70.339 
-13.169  10.711 -68.075 
 -0.320 -12.326 -67.584 
 -3.101   7.519 -75.802 
 11.892  -6.757 -65.763 
 -2.979  -6.742 -67.809 
 13.692   8.043 -73.393 
  6.693   0.150 -73.835 
 -7.525  -3.498 -67.005 
 -0.425   9.133 -68.816 
  6.030  -2.291 -65.382 
  7.279  12.541 -69.493 
 -0.151   1.044 -63.966 
  7.749  -2.141 -69.256 
 -8.651   9.741 -71.305 
  6.212  -5.727 -60.447 
  2.221  -5.620 -74.162 
 -8.454   2.684 -63.852 
 -2.613   3.306 -62.808 
-11.081   7.881 -71.169 
  7.771  -1.757 -71.346 
 10.953  -5.236 -69.761 
 -9.011   6.793 -74.230 
  7.041   0.987 -73.758 
 -0.598 -10.755 -70.879 
 -1.611  -7.547 -69.476 
 12.716  -2.038 -68.592 
 12.412   0.450 -67.063 
 -6.689  -9.072 -67.073 
  7.268   4.863 -66.190 
  0.885   0.402 -68.425 
  2.753   7.536 -65.060 
-10.109  -3.401 -72.785 
 -2.051   4.622 -64.277 
  4.650 -11.746 -67.790 
 -7.696   2.081 -69.907 
  8.944   6.200 -61.074 
  3.902 -13.011 -66.327 
  9.264  -2.718 -64.586 
 16.005  -4.439 -70.216 
 -6.966   6.356 -64.805 
  8.465  -8.587 -67.630 
 -5.449 -11.977 -70.192 
-10.029  -1.790 -70.637 
 -7.524   1.067 -64.323 
 11.729   7.724 -70.277 
 -1.469   3.758 -73.832 
  5.601  -8.640 -69.127 
  5.212  -8.216 -70.678 
 -3.673 -10.861 -64.409 
  4.067  10.790 -68.975 
 -8.546  -0.018 -65.359 
  4.273   8.084 -64.853 
 -3.271  -6.145 -65.201 
 16.622   0.056 -67.668 
  9.677  -4.550 -67.424 
  4.925  -2.699 -74.716 
  2.683   5.100 -69.454 
 -4.953   1.846 -73.945 
 -0.287 -10.424 -65.261 
-12.712   3.478 -66.731 
 -7.561  10.117 -63.613 
  3.717   9.793 -71.570 
 -9.518  11.787 -70.786 
  4.236 -10.753 -65.835 
  9.562  12.195 -65.901 
  5.603  -8.280 -67.374 
 -1.047  11.172 -62.698 
 14.417   6.588 -67.646 
-11.124  12.342 -72.515 
  3.377   4.730 -69.106 
 -8.425 -12.449 -67.535 
 11.802  10.702 -70.926 
 -8.826   7.110 -65.771 
-13.515  10.141 -72.151 
  2.545   0.281 -63.826 
 -3.430 -11.006 -68.281 
 -9.948  12.441 -66.020 
 -1.880 -12.825 -67.106 
 -0.454 -11.365 -65.387 
 -2.385  -1.841 -71.769 
  8.713   2.137 -63.236 
 10.291  -1.768 -72.395 
 14.022   9.739 -67.850 
  3.819   1.102 -64.540 
-15.031   5.915 -72.499 
-14.291   3.559 -68.724 
  5.872   0.345 -61.311 
  3.676   2.299 -66.664 
  1.671   7.609 -71.857 
 -4.792   7.178 -60.556 
  1.205 -12.773 -68.357 
 -5.503  -0.586 -70.091 
  3.157   5.245 -66.439 
 -7.766   1.688 -63.490 
 -8.538   4.370 -68.781 
  9.927  -6.455 -64.622 
 -3.602   6.127 -69.552 
 -3.492  -6.103 -69.281 
 -9.020  -7.123 -66.087 
  4.038   6.269 -63.794 
  5.656  -2.265 -74.302 
-14.918   5.085 -71.017 
 15.474  -4.769 -67.429 
 -3.466   6.244 -61.954 
 -1.035  -3.094 -75.707 
  9.665   3.763 -66.778 
  9.121   1.382 -66.978 
-12.513  -6.309 -72.523 
  2.798 -10.581 -75.579 
  7.719  -2.970 -67.941 
 -7.380   2.366 -61.625 
  2.702  12.266 -70.495 
-12.842   3.692 -68.317 
  6.911  10.008 -75.727 
-10.560   0.708 -72.622 
 -5.029 -10.818 -71.942 
  0.031 -11.849 -68.152 
  2.253   3.259 -62.472 
  2.981  -9.332 -63.970 
  7.159 -10.951 -67.353 
-10.192  11.448 -70.603 
 -3.782  -6.886 -73.025 
  4.736   4.779 -71.884 
-10.621  -9.414 -61.572 
 -0.671   2.035 -65.025 
 -4.457   6.539 -63.341 
  0.497   2.024 -74.113 
 -0.459   0.980 -76.942 
  5.549 -12.075 -67.674 
 10.430   1.180 -66.579 
  0.502   8.968 -63.831 
  9.477  -2.592 -70.791 
 -8.084   6.086 -61.025 
 -1.883  10.900 -67.189 
  2.103   6.097 -72.526 
  5.090  -4.187 -66.582 
  4.420  -0.174 -72.156 
  4.688 -10.581 -69.501 
 -0.957 -10.171 -66.767 
 -0.178   9.226 -58.403 
 -6.694  -5.955 -67.333 
 14.491   9.142 -71.064 
 -3.189 -11.813 -74.628 
 -1.014   3.357 -61.115 
 -4.465  -5.650 -62.959 
  1.640  -2.054 -75.462 
  9.855  -8.323 -69.966 
 15.052  12.398 -67.496 
 11.974   9.733 -68.439 
  4.097   7.700 -75.913 
 15.852  -5.091 -69.925 
  9.261   6.813 -66.451 
-11.702   5.673 -71.033 
  4.686  -0.690 -69.775 
 -3.532   6.537 -64.542 
  8.364   7.380 -64.127 
 -8.986   8.310 -75.327 
  2.523   2.380 -64.444 
  8.981  11.121 -65.456 
 11.988 -10.096 -65.675 
  4.786   4.540 -73.454 
 10.301  10.480 -68.600 
 10.631   7.811 -75.581 
  1.825   4.869 -61.703 
 12.811  -3.691 -68.862 
-13.820   1.321 -76.072 
  9.296   3.777 -65.435 
  4.430  -8.971 -66.612 
 15.881   7.902 -71.237 
 10.683  -2.343 -65.994 
 17.262  -6.132 -69.588 
  7.758   9.137 -62.675 
-13.501   8.056 -65.793 
 10.765   3.760 -62.697 
  3.338  10.320 -76.222 
-10.319   0.029 -61.075 
 -0.733  10.198 -74.865 
  7.649 -10.409 -66.582 
  4.787  11.792 -75.911 
  8.823   5.117 -66.072 
 -3.602   0.415 -70.809 
  8.372  -0.713 -73.635 
 10.429 -12.001 -70.609 
-11.464   6.258 -74.622 
-13.397  11.685 -72.238 
 -0.418  -6.832 -66.530 
-13.951   9.438 -73.417 
 12.238   5.794 -69.962 
 12.921  -2.218 -72.315 
 -8.401   1.869 -74.448 
 -2.706  10.751 -68.672 
 -0.288  -3.368 -67.103 
 12.659  -4.513 -64.763 
  5.035  -7.739 -75.546 
 11.012  -4.873 -67.520 
 -8.005  -1.763 -74.719 
 16.733  10.240 -71.793 
 -1.234   7.075 -64.891 
 15.264   1.148 -66.900 
 11.047  -8.469 -73.852 
 14.866   7.657 -71.315 
  8.011  -8.521 -69.252 
 -6.014   8.722 -75.708 
 11.205  -3.502 -62.992 
 -6.450  -9.537 -58.834 
  2.105  -4.996 -68.476 
 -7.887   6.588 -75.114 
  5.836   8.191 -63.626 
  3.574 -12.221 -66.566 
-10.999  -3.930 -72.483 
 11.686   0.309 -71.996 
-13.003  -5.119 -74.449 
 12.744   8.538 -67.884 
 -6.134  12.164 -69.246 
 12.422  -0.846 -65.268 
 17.121  12.848 -67.557 
 13.363  -8.850 -68.432 
 16.903  -6.454 -71.648 
 12.854  -0.456 -77.434 
  6.458   9.282 -65.248 
 -0.006  -3.043 -72.758 
 -7.814  -6.132 -74.586 
  5.774  10.890 -67.898 
 -2.500  11.435 -73.720 
 -7.501 -10.019 -58.399 
 -6.332   7.265 -72.272 
-11.774   6.521 -69.538 
 -6.910   7.454 -75.555 
-10.923  -8.431 -66.502 
 11.097  -6.012 -74.072 
  0.540  -5.026 -68.962 
  9.659   5.050 -71.822 
  4.137   7.150 -70.904 
-14.203  -8.482 -73.924 
-10.139  -1.772 -72.661 
 -0.691   6.297 -69.308 
  5.151   6.131 -74.418 
 -0.451   5.567 -73.216 
  5.249  12.468 -63.343 
  6.707   4.588 -67.162 
  1.155   4.196 -76.484 
 -9.723   3.497 -59.861 
 -8.470  11.980 -76.250 
 13.917   2.648 -67.435 
  2.853  11.342 -64.127 
  9.770   4.289 -70.811 
 -1.996   9.479 -60.554 
  0.962  -6.600 -76.874 
  1.801  -5.841 -66.790 
 -0.508  -7.894 -71.248 
 15.148  -0.137 -62.892 
 12.917 -11.276 -69.855 
  3.264  -9.637 -68.120 
  5.393  -2.726 -68.483 
  5.116   6.200 -63.468 
  5.508   1.081 -66.409 
  9.246  -5.439 -69.362 
 -6.190   8.662 -61.591 
-13.473  11.253 -73.223 
 -7.771  -5.707 -67.106 
 12.090  -9.660 -64.754 
-13.123  -8.517 -65.888 
 10.834  -4.400 -64.198 
-10.654   2.886 -72.369 
 -7.882   9.750 -66.651 
  6.851  -4.932 -76.773 
  6.915  -1.723 -60.075 
  4.510   4.083 -66.010 
-11.663  -6.534 -64.151 
 10.433  -6.261 -64.153 
  0.035   7.188 -74.319 
-11.294  12.259 -64.267 
 -8.059  -9.633 -63.345 
 -4.847 -10.259 -61.619 
 -4.257  -0.577 -66.820 
 -2.072  12.298 -62.028 
 13.970  -5.051 -64.744 
 -6.769  -3.209 -62.840 
  5.438  -6.050 -62.563 
 -4.633  10.591 -64.403 
 -4.198  -7.795 -67.041 
-10.044   5.353 -62.743 
-11.283  -7.694 -67.496 
-12.256   2.344 -68.941 
  6.630  -7.067 -73.127 
 -9.291   2.644 -73.078 
 -8.119  11.485 -59.655 
  1.724  -5.983 -65.344 
 16.913   4.206 -65.159 
 -1.323  12.540 -63.608 
  8.989  -1.910 -59.184 
 -5.905 -11.075 -65.695 
-14.067   0.420 -75.326 
 -9.620   6.476 -74.614 
-13.146  -0.028 -65.588 
 -0.378 -12.031 -65.335 
 -5.447  -3.568 -69.394 
 11.247   9.503 -64.605 
 -4.785   2.273 -72.730 
  0.042 -10.294 -74.344 
 -9.209  -7.103 -69.456 
-10.186  -8.777 -67.978 
 -1.932   7.595 -60.212 
-11.841  10.973 -61.184 
-14.778   9.872 -69.023 
 -3.494   3.862 -73.037 
 -4.830  -4.531 -75.894 
 -4.478  -1.262 -67.148 
 14.157   0.649 -68.456 
 -9.254 -11.391 -67.835 
  4.287  10.177 -76.413 
 10.919   0.965 -61.238 
 14.215  -6.385 -65.898 
 -2.063  11.459 -69.794 
-13.826   8.614 -68.513 
 15.264  -3.785 -63.026 
  5.424  -4.652 -75.067 
 -0.432  11.849 -72.370 
-13.551  -1.889 -64.743 
  5.029   0.980 -61.454 
 14.368 -11.551 -72.945 
 16.414   0.731 -73.841 
 -0.188  -2.952 -67.183 
  1.117  11.492 -62.959 
  7.469 -11.098 -63.311 
-14.942  -8.630 -70.919 
 17.731  11.458 -70.321 
-12.849   1.871 -77.227 
 -1.948   2.946 -69.035 
 -3.925   2.205 -69.370 
 -3.507  -5.421 -73.090 
 12.170   1.907 -63.736 
-13.907  12.988 -67.850 
 -4.244  11.837 -72.754 
-12.966  -2.994 -71.261 
 -4.380  11.575 -74.192 
 -7.124   8.805 -68.355 
 14.960   2.019 -84.123 
 12.643   5.580 -63.186 
 -2.000   8.508 -74.153 
  7.890 -12.758 -69.420 
-13.287   9.098 -70.204 
  6.889   0.499 -67.856 
 -2.838   2.303 -67.093 
 17.374  -0.722 -66.702 
  0.395   2.697 -72.960 
 16.007  -8.107 -67.136 
  6.325  -3.920 -55.244 
  0.528  -4.669 -70.537 
 -3.782  10.500 -72.516 
 -2.753  -7.624 -60.352 
-12.686   7.506 -72.708 
 11.936  -1.703 -71.384 
 16.597  -9.927 -69.838 
 -4.465   2.936 -65.736 
-14.908  -0.751 -75.959 
 12.270  -8.541 -64.339 
  2.816   9.104 -68.578 
-14.915 -11.780 -75.105 
 -7.615  -1.894 -68.459 
 -5.094  10.714 -74.609 
  5.090   7.294 -62.780 
 -6.247   3.415 -63.601 
-11.617   1.205 -63.224 
 16.481   9.385 -71.435 
 -9.850   1.104 -65.982 
 -8.087  -1.822 -61.752 
-11.966   8.262 -71.585 
 -1.666   9.765 -66.299 
 -2.762  13.441 -66.231 
 15.727   8.345 -72.857 
  1.283  -8.643 -63.317 
 -8.326  -4.886 -73.123 
-11.491  -5.815 -65.652 
 -9.441   1.081 -77.722 
  6.271  11.041 -72.002 
 -3.862  -8.463 -71.523 
 -9.531  -8.523 -65.369 
  3.398  -5.598 -60.777 
 -1.164   5.161 -64.529 
  0.884  -0.106 -62.160 
 -1.956 -10.477 -69.807 
  1.539  -3.994 -67.771 
 18.357  12.485 -74.635 
 -4.708  13.340 -66.682 
-15.512  -9.811 -71.019 
 13.077  12.649 -65.365 
 11.653   8.224 -61.865 
  3.878  -9.284 -69.138 
 -0.314 -11.657 -71.291 
-14.755  12.408 -67.236 
 18.677  -7.338 -69.291 
 -3.296   5.157 -62.373 
 13.306 -11.124 -76.388 
  6.128 -13.076 -64.234 
  4.397   1.623 -62.250 
-16.008   8.816 -69.332 
 -8.494  -7.927 -67.247 
  2.591  -0.248 -69.987 
 -3.393 -11.658 -77.240 
 14.470   4.789 -72.136 
 -2.200   5.362 -62.142 
  7.343  -5.263 -73.948 
 -6.264   1.305 -61.426 

 VERTICES 496 992 
1 0 
1 1 
1 2 
1 3 
1 4 
1 5 
1 6 
1 7 
1 8 
1 9 
1 10 
1 11 
1 12 
1 13 
1 14 
1 15 
1 16 
1 17 
1 18 
1 19 
1 20 
1 21 
1 22 
1 23 
1 24 
1 25 
1 26 
1 27 
1 28 
1 29 
1 30 
1 31 
1 32 
1 33 
1 34 
1 35 
1 36 
1 37 
1 38 
1 39 
1 40 
1 41 
1 42 
1 43 
1 44 
1 45 
1 46 
1 47 
1 48 
1 49 
1 50 
1 51 
1 52 
1 53 
1 54 
1 55 
1 56 
1 57 
1 58 
1 59 
1 60 
1 61 
1 62 
1 63 
1 64 
1 65 
1 66 
1 67 
1 68 
1 69 
1 70 
1 71 
1 72 
1 73 
1 74 
1 75 
1 76 
1 77 
1 78 
1 79 
1 80 
1 81 
1 82 
1 83 
1 84 
1 85 
1 86 
1 87 
1 88 
1 89 
1 90 
1 91 
1 92 
1 93 
1 94 
1 95 
1 96 
1 97 
1 98 
1 99 
1 100 
1 101 
1 102 
1 103 
1 104 
1 105 
1 106 
1 107 
1 108 
1 109 
1 110 
1 111 
1 112 
1 113 
1 114 
1 115 
1 116 
1 117 
1 118 
1 119 
1 120 
1 121 
1 122 
1 123 
1 124 
1 125 
1 126 
1 127 
1 128 
1 129 
1 130 
1 131 
1 132 
1 133 
1 134 
1 135 
1 136 
1 137 
1 138 
1 139 
1 140 
1 141 
1 142 
1 143 
1 144 
1 145 
1 146 
1 147 
1 148 
1 149 
1 150 
1 151 
1 152 
1 153 
1 154 
1 155 
1 156 
1 157 
1 158 
1 159 
1 160 
1 161 
1 162 
1 163 
1 164 
1 165 
1 166 
1 167 
1 168 
1 169 
1 170 
1 171 
1 172 
1 173 
1 174 
1 175 
1 176 
1 177 
1 178 
1 179 
1 180 
1 181 
1 182 
1 183 
1 184 
1 185 
1 186 
1 187 
1 188 
1 189 
1 190 
1 191 
1 192 
1 193 
1 194 
1 195 
1 196 
1 197 
1 198 
1 199 
1 200 
1 201 
1 202 
1 203 
1 204 
1 205 
1 206 
1 207 
1 208 
1 209 
1 210 
1 211 
1 212 
1 213 
1 214 
1 215 
1 216 
1 217 
1 218 
1 219 
1 220 
1 221 
1 222 
1 223 
1 224 
1 225 
1 226 
1 227 
1 228 
1 229 
1 230 
1 231 
1 232 
1 233 
1 234 
1 235 
1 236 
1 237 
1 238 
1 239 
1 240 
1 241 
1 242 
1 243 
1 244 
1 245 
1 246 
1 247 
1 248 
1 249 
1 250 
1 251 
1 252 
1 253 
1 254 
1 255 
1 256 
1 257 
1 258 
1 259 
1 260 
1 261 
1 262 
1 263 
1 264 
1 265 
1 266 
1 267 
1 268 
1 269 
1 270 
1 271 
1 272 
1 273 
1 274 
1 275 
1 276 
1 277 
1 278 
1 279 
1 280 
1 281 
1 282 
1 283 
1 284 
1 285 
1 286 
1 287 
1 288 
1 289 
1 290 
1 291 
1 292 
1 293 
1 294 
1 295 
1 296 
1 297 
1 298 
1 299 
1 300 
1 301 
1 302 
1 303 
1 304 
1 305 
1 306 
1 307 
1 308 
1 309 
1 310 
1 311 
1 312 
1 313 
1 314 
1 315 
1 316 
1 317 
1 318 
1 319 
1 320 
1 321 
1 322 
1 323 
1 324 
1 325 
1 326 
1 327 
1 328 
1 329 
1 330 
1 331 
1 332 
1 333 
1 334 
1 335 
1 336 
1 337 
1 338 
1 339 
1 340 
1 341 
1 342 
1 343 
1 344 
1 345 
1 346 
1 347 
1 348 
1 349 
1 350 
1 351 
1 352 
1 353 
1 354 
1 355 
1 356 
1 357 
1 358 
1 359 
1 360 
1 361 
1 362 
1 363 
1 364 
1 365 
1 366 
1 367 
1 368 
1 369 
1 370 
1 371 
1 372 
1 373 
1 374 
1 375 
1 376 
1 377 
1 378 
1 379 
1 380 
1 381 
1 382 
1 383 
1 384 
1 385 
1 386 
1 387 
1 388 
1 389 
1 390 
1 391 
1 392 
1 393 
1 394 
1 395 
1 396 
1 397 
1 398 
1 399 
1 400 
1 401 
1 402 
1 403 
1 404 
1 405 
1 406 
1 407 
1 408 
1 409 
1 410 
1 411 
1 412 
1 413 
1 414 
1 415 
1 416 
1 417 
1 418 
1 419 
1 420 
1 421 
1 422 
1 423 
1 424 
1 425 
1 426 
1 427 
1 428 
1 429 
1 430 
1 431 
1 432 
1 433 
1 434 
1 435 
1 436 
1 437 
1 438 
1 439 
1 440 
1 441 
1 442 
1 443 
1 444 
1 445 
1 446 
1 447 
1 448 
1 449 
1 450 
1 451 
1 452 
1 453 
1 454 
1 455 
1 456 
1 457 
1 458 
1 459 
1 460 
1 461 
1 462 
1 463 
1 464 
1 465 
1 466 
1 467 
1 468 
1 469 
1 470 
1 471 
1 472 
1 473 
1 474 
1 475 
1 476 
1 477 
1 478 
1 479 
1 480 
1 481 
1 482 
1 483 
1 484 
1 485 
1 486 
1 487 
1 488 
1 489 
1 490 
1 491 
1 492 
1 493 
1 494 
1 495 
POINT_DATA 496 
SCALARS MeanU double 1 
LOOKUP_TABLE default
0.15852 
0.15860 
0.08644 
0.11895 
0.15388 
0.09213 
0.19324 
0.11252 
0.08437 
0.12028 
0.13341 
0.16777 
0.19083 
0.13456 
0.17339 
0.10427 
0.11164 
0.08621 
0.11327 
0.17593 
0.12337 
0.09065 
0.21497 
0.10453 
0.15533 
0.10086 
0.19346 
0.13165 
0.18298 
0.12171 
0.11733 
0.19232 
0.15154 
0.11042 
0.12636 
0.08218 
0.13759 
0.07666 
0.15694 
0.08539 
0.12074 
0.10379 
0.11337 
0.19828 
0.08750 
0.10019 
0.32129 
0.11174 
0.13718 
0.18967 
0.08851 
0.08300 
0.13776 
0.14167 
0.20811 
0.09419 
0.13432 
0.11333 
0.14032 
0.05440 
0.17982 
0.10728 
0.09511 
0.08675 
0.17836 
0.10036 
0.14323 
0.19688 
0.09102 
0.14585 
0.12824 
0.15732 
0.07490 
0.15736 
0.11001 
0.12096 
0.09223 
0.18231 
0.15962 
0.08333 
0.20937 
0.08341 
0.16277 
0.11239 
0.27172 
0.11058 
0.22064 
0.09818 
0.17483 
0.12054 
0.13047 
0.09739 
0.17965 
0.11051 
0.09269 
0.08662 
0.23436 
0.15344 
0.20422 
0.29177 
0.08772 
0.22578 
0.12804 
0.09459 
0.22666 
0.07711 
0.14152 
0.09597 
0.08964 
0.09229 
0.13352 
0.22275 
0.11108 
0.07375 
0.20756 
0.11859 
0.11604 
0.07999 
0.07666 
0.09505 
0.15190 
0.16720 
0.10021 
0.14869 
0.10280 
0.08742 
0.24211 
0.14979 
0.08868 
0.16077 
0.09206 
0.12570 
0.14951 
0.10696 
0.09574 
0.14888 
0.10516 
0.08538 
0.19577 
0.19837 
0.04204 
0.09696 
0.17539 
0.10311 
0.16998 
0.05441 
0.15717 
0.11468 
0.11034 
0.15926 
0.08642 
0.16795 
0.16723 
0.14105 
0.08211 
0.12848 
0.02904 
0.15215 
0.16418 
0.10025 
0.05121 
0.14375 
0.12028 
0.14985 
0.14900 
0.04043 
0.02805 
0.17088 
0.13916 
0.08059 
0.11565 
0.19272 
0.17998 
0.13267 
0.05412 
0.10823 
0.09028 
0.13819 
0.11312 
0.12540 
0.11905 
0.05341 
0.11668 
0.13084 
0.09210 
0.07350 
0.21473 
0.16590 
0.07796 
0.09694 
0.08138 
0.11904 
0.12826 
0.18693 
0.11453 
0.12375 
0.08050 
0.11964 
0.20564 
0.15966 
0.12128 
0.21968 
0.11666 
0.09697 
0.14390 
0.11676 
0.15409 
0.14334 
0.08805 
0.13916 
0.10778 
0.17872 
0.09501 
0.09646 
0.21675 
0.18337 
0.13791 
0.12489 
0.14221 
0.05193 
0.09692 
0.14392 
0.11370 
0.10647 
0.10762 
0.14271 
0.11414 
0.22523 
0.12402 
0.12343 
0.12150 
0.10844 
0.26676 
0.15486 
0.10658 
0.16859 
0.23074 
0.06769 
0.05301 
0.04667 
0.10497 
0.09233 
0.14052 
0.11285 
0.11015 
0.12953 
0.12971 
0.11394 
0.10458 
0.12033 
0.03340 
0.13109 
0.13974 
0.11230 
0.18344 
0.10918 
0.04885 
0.10760 
0.25082 
0.15737 
0.16883 
0.12914 
0.07238 
0.15848 
0.07653 
0.13492 
0.12347 
0.14626 
0.14447 
0.15618 
0.12943 
0.14377 
0.16384 
0.23161 
0.08557 
0.08700 
0.06989 
0.12360 
0.04993 
0.07258 
0.10204 
0.12689 
0.07991 
0.13956 
0.15473 
0.14559 
0.17206 
0.17289 
0.10568 
0.12916 
0.08338 
0.10160 
0.14125 
0.11568 
0.06213 
0.14831 
0.14224 
0.13746 
0.09278 
0.10032 
0.08169 
0.11748 
0.03713 
0.21946 
0.04416 
0.07465 
0.10239 
0.13685 
0.07860 
0.07145 
0.14823 
0.08764 
0.11620 
0.17457 
0.08020 
0.07125 
0.07783 
0.08503 
0.18142 
0.07490 
0.16819 
0.06635 
0.15430 
0.11262 
0.16114 
0.08309 
0.14492 
0.13473 
0.14171 
0.08987 
0.14481 
0.15725 
0.09101 
0.10048 
0.04670 
0.13820 
0.13491 
0.14271 
0.11145 
0.04934 
0.14730 
0.14362 
0.17219 
0.13469 
0.15764 
0.14296 
0.14580 
0.16251 
0.18533 
0.12522 
0.13280 
0.29049 
0.13582 
0.18392 
0.12268 
0.16685 
0.08082 
0.14977 
0.11992 
0.14525 
0.18793 
0.19623 
0.18717 
0.09295 
0.13304 
0.10045 
0.19464 
0.11014 
0.10367 
0.33397 
0.21283 
0.15728 
0.13430 
0.13520 
0.08784 
0.18821 
0.16319 
0.14921 
0.13407 
0.22804 
0.05632 
0.11173 
0.12438 
0.14725 
0.10253 
0.06257 
0.27062 
0.07752 
0.21131 
0.07454 
0.16319 
0.09611 
0.05546 
0.07025 
0.04679 
0.09144 
0.07583 
0.16913 
0.12750 
0.15774 
0.05371 
0.09541 
0.14299 
0.18709 
0.09845 
0.07717 
0.12652 
0.12141 
0.10720 
0.13315 
0.26477 
0.14363 
0.12001 
0.07894 
0.13211 
0.11056 
0.13528 
0.10699 
0.11861 
0.05473 
0.18686 
0.13929 
0.12077 
0.20044 
0.11197 
0.07503 
0.12628 
0.06233 
0.05606 
0.25430 
0.14521 
0.11729 
0.09236 
0.20987 
0.15270 
0.11647 
0.05962 
0.14105 
0.09614 
0.26598 
0.17362 
0.10073 
0.22912 
0.05195 
0.10119 
0.06212 
0.08796 
0.06007 
0.12742 
0.08203 
0.18533 
0.16444 
0.06302 
0.08420 
0.07130 
0.21201 
0.14151 
0.29319 
0.14322 
0.08268 
0.15813 
0.10105 
0.15067 
0.26359 
0.22763 
0.12341 
0.08886 
0.08493 
0.17783 
0.09506 
0.21156 
0.04141 
0.22322 
0.11440 
0.13254 
0.22801 
0.21178 
0.10835 
0.07044 
0.18504 
0.16551 
0.11432 
0.08858 
0.06540 
0.14157 
0.06689 
0.13544 
0.08746 
0.11493 
0.12176 
0.19389 
0.10628 
0.14750 
0.14536 
0.13434 
0.10301 

 VECTORS Umean float 
0.06350 0.09600 -0.10900 
0.06100 0.08800 -0.11700 
0.02250 0.08150 0.01800 
0.01650 0.07600 -0.09000 
0.06200 0.06950 -0.12250 
0.02450 0.08800 -0.01200 
0.05300 0.15500 -0.10250 
0.02450 0.10850 0.01700 
0.02450 0.06600 -0.04650 
0.05300 0.10550 0.02300 
0.06500 0.10350 -0.05350 
0.09700 0.12100 -0.06400 
0.03450 0.17800 -0.05950 
0.05200 0.12300 0.01650 
0.05250 0.10750 -0.12550 
0.01300 0.10250 0.01400 
0.07300 0.06950 -0.04800 
0.02150 0.07000 0.04550 
-0.01600 0.08800 0.06950 
0.08450 0.10400 0.11400 
0.05700 0.09600 -0.05250 
-0.03550 0.06750 -0.04900 
0.04500 0.12700 -0.16750 
-0.00900 -0.06900 -0.07800 
0.08650 0.08450 -0.09750 
0.01250 0.09500 0.03150 
0.12200 0.14400 -0.04250 
0.01650 0.12800 -0.02600 
0.06300 0.16950 -0.02800 
0.06000 0.06700 -0.08200 
-0.03800 0.11100 -0.00050 
0.07050 0.09600 -0.15100 
-0.04500 0.09850 -0.10600 
0.02000 0.10850 0.00450 
0.03500 0.12100 0.01000 
0.02350 0.07500 -0.02400 
0.01750 0.13150 -0.03650 
-0.01750 0.07350 -0.01300 
0.03550 0.12500 -0.08800 
0.06300 0.05750 0.00400 
0.05150 0.10500 -0.03000 
-0.00250 0.10300 -0.01250 
0.02200 0.09750 -0.05350 
0.01550 0.19650 -0.02150 
0.04200 0.05950 0.04850 
0.04850 0.08750 0.00550 
0.10400 0.11100 -0.28300 
0.03950 0.09550 0.04250 
0.01900 0.13100 0.03600 
0.10500 0.14950 -0.05100 
0.07200 0.04700 0.02100 
-0.00500 0.06450 0.05200 
0.08500 0.06600 -0.08600 
-0.01050 0.06950 0.12300 
0.04100 0.16750 -0.11650 
0.04500 0.05950 -0.05750 
-0.05500 0.10450 0.06400 
-0.02100 -0.00900 -0.11100 
0.04150 0.11400 0.07050 
-0.00900 0.03400 -0.04150 
0.06950 0.10900 -0.12500 
0.06800 0.07500 -0.03550 
0.03150 0.07350 0.05150 
0.03300 0.07400 -0.03100 
0.13150 0.10450 -0.06000 
-0.01400 0.09800 -0.01650 
0.02950 0.13900 -0.01800 
0.11900 0.08550 -0.13150 
0.04100 0.07850 -0.02100 
0.07200 0.11500 -0.05350 
0.04550 0.08250 -0.08700 
0.10900 0.09500 -0.06200 
0.05400 0.01200 -0.05050 
0.02500 0.07600 -0.13550 
-0.04900 0.09850 -0.00000 
0.01550 0.11700 0.02650 
0.07850 0.02800 -0.03950 
0.14700 0.10400 -0.02850 
0.02100 0.15800 0.00850 
0.03900 0.06150 -0.04050 
-0.06850 0.18900 -0.05850 
0.01050 0.07750 -0.02900 
0.08500 0.05250 -0.12850 
0.08000 0.04550 -0.06450 
0.11350 0.16950 -0.17950 
0.01800 0.10400 -0.03300 
0.09400 0.02900 -0.19750 
0.04550 0.05550 -0.06700 
0.03500 0.16500 -0.04600 
0.06650 0.08350 -0.05600 
-0.00700 0.13000 0.00850 
-0.02050 0.09100 0.02800 
-0.05350 0.16450 -0.04850 
0.07900 0.05850 -0.05050 
0.05550 0.06600 -0.03400 
0.04250 0.06550 -0.03750 
0.19350 0.12900 -0.02900 
0.09650 -0.03350 -0.11450 
0.08200 0.13250 -0.13200 
0.13400 0.11350 -0.23300 
0.04200 0.07450 -0.01950 
0.14000 0.12600 -0.12450 
-0.10250 0.00600 -0.07650 
0.06500 0.06850 -0.00550 
0.03000 0.14150 -0.17450 
0.02900 0.05550 0.04500 
0.07500 0.00200 -0.12000 
0.03400 0.07350 -0.05150 
0.04200 0.07700 -0.01850 
0.00800 0.07650 -0.05100 
0.03600 0.12650 0.02300 
0.03400 0.13550 -0.17350 
0.05600 0.04350 -0.08550 
0.03350 0.05250 -0.03950 
0.07600 0.14100 -0.13200 
0.08000 0.01350 -0.08650 
0.09200 0.02900 -0.06450 
-0.05550 0.04650 0.03400 
0.04100 0.06450 -0.00600 
-0.01750 0.03650 -0.08600 
0.02950 0.13550 -0.06200 
0.09800 0.12550 -0.05100 
0.01100 0.09100 -0.04050 
0.04100 0.13150 -0.05600 
0.00150 0.09700 0.03400 
0.03400 -0.00250 -0.08050 
0.08900 0.20850 -0.08500 
0.02850 0.12850 -0.07150 
0.06100 0.01900 -0.06150 
0.07500 0.13350 -0.04900 
0.08350 0.03850 -0.00450 
-0.00350 0.12450 -0.01700 
0.04050 0.10000 -0.10350 
0.08000 0.06750 -0.02200 
0.02800 0.07500 -0.05250 
0.01250 0.12650 -0.07750 
0.00350 -0.09350 -0.04800 
0.06600 0.05350 -0.00850 
0.05350 0.06700 -0.17600 
0.08000 0.10150 -0.15050 
0.02550 0.02600 -0.02100 
-0.01400 0.09350 0.02150 
0.01200 0.13100 -0.11600 
0.05750 0.08550 0.00400 
0.07100 -0.03000 -0.15150 
-0.01800 0.04750 -0.01950 
0.07950 0.09100 -0.10050 
0.04250 0.09950 -0.03800 
0.01900 0.09800 -0.04700 
0.04050 0.12500 -0.09000 
0.07150 0.04400 -0.02050 
0.06050 0.15450 0.02600 
0.00800 0.16450 -0.02900 
-0.03500 0.13050 -0.04050 
0.04850 0.06550 -0.01000 
0.09800 0.05850 -0.05900 
0.00900 0.01450 0.02350 
0.06600 0.00500 -0.13700 
-0.02550 0.12650 0.10150 
0.07200 0.05850 -0.03800 
-0.01250 0.04500 -0.02100 
0.04800 0.13550 0.00100 
0.06950 0.01800 -0.09650 
0.05050 -0.09800 -0.10150 
0.00050 0.14900 -0.00000 
0.01650 0.03000 0.02150 
0.02750 0.00050 0.00550 
0.11050 0.08650 -0.09750 
0.00750 0.12650 0.05750 
0.02100 0.05650 -0.05350 
0.09150 0.05100 -0.04900 
0.06850 0.17650 -0.03600 
0.05550 0.17100 -0.00850 
0.10450 0.07100 -0.04050 
0.04050 0.03400 0.01150 
0.04150 0.07550 -0.06550 
-0.01050 0.04050 -0.08000 
-0.00900 0.09650 -0.09850 
0.08650 0.06900 -0.02350 
0.03350 0.11900 -0.02100 
-0.01050 0.11850 -0.00450 
-0.01300 0.04150 0.03100 
0.10300 0.01400 -0.05300 
0.02250 0.12700 -0.02200 
0.02600 0.05050 -0.07250 
-0.02250 0.05400 -0.04450 
0.05600 0.18650 -0.09050 
0.05750 0.13100 -0.08400 
0.02200 0.05650 0.04900 
0.05950 0.07550 0.01250 
0.05150 0.06250 -0.00800 
-0.01200 0.11200 -0.03850 
0.05950 0.09800 -0.05750 
0.02600 0.18450 -0.01500 
0.10500 0.04400 0.01250 
0.00650 0.12300 -0.01200 
0.07750 -0.01850 -0.01150 
0.03500 0.09550 -0.06300 
0.01100 0.20400 -0.02350 
0.03100 0.03350 -0.15300 
0.03650 0.06450 -0.09600 
0.08750 0.11350 -0.16650 
-0.02750 0.09800 -0.05700 
-0.06600 0.07100 0.00250 
0.07400 0.11850 -0.03450 
0.02800 0.07500 -0.08500 
0.01150 0.08650 -0.12700 
0.08650 0.09150 -0.06850 
0.07000 0.04200 -0.03300 
0.06050 0.12500 -0.00900 
0.10000 0.02500 -0.03150 
-0.02300 0.03850 -0.17300 
0.03950 0.08550 -0.01250 
-0.01550 0.09100 -0.02800 
0.11450 0.18400 -0.00400 
0.05700 0.06300 -0.16250 
0.03850 0.12850 -0.03200 
-0.06050 0.10800 0.01650 
0.03750 0.11250 -0.07850 
-0.01200 0.05050 -0.00150 
0.01100 0.01850 -0.09450 
0.03500 0.13850 -0.01750 
0.02050 0.08250 0.07550 
0.01100 0.05500 -0.09050 
-0.05450 0.07400 -0.05600 
0.04450 0.11900 0.06500 
0.00150 0.11300 0.01600 
0.13350 0.07200 -0.16650 
0.03200 0.10000 -0.06600 
0.08450 0.03350 -0.08350 
0.08200 0.02700 -0.08550 
0.03800 0.10150 -0.00350 
0.16050 0.07350 -0.20000 
0.05750 -0.06550 -0.12800 
0.06100 0.06950 -0.05300 
0.07300 0.14500 -0.04550 
0.07400 0.00500 -0.21850 
-0.00400 0.05750 -0.03550 
0.02300 0.04100 -0.02450 
0.03300 -0.03300 -0.00050 
0.01900 -0.07350 -0.07250 
0.04300 0.08050 0.01400 
0.12950 0.04900 0.02400 
0.08550 0.07250 -0.01300 
0.00400 0.11000 0.00400 
0.05750 0.07450 -0.08900 
-0.01550 0.12350 0.03650 
0.04050 0.09850 -0.04050 
0.00350 0.10450 -0.00200 
0.05050 0.10900 0.00700 
0.00100 0.03200 -0.00950 
0.03450 0.07050 -0.10500 
0.04800 0.12450 -0.04150 
0.09800 -0.00950 -0.05400 
0.01600 0.12150 -0.13650 
0.03950 0.10000 -0.01900 
0.01900 0.00050 0.04500 
-0.07850 0.06650 -0.03150 
-0.00850 0.17850 -0.17600 
0.12050 0.06450 -0.07800 
0.07850 0.07550 -0.12900 
0.05150 0.11250 -0.03700 
0.03300 0.06200 -0.01750 
0.02950 0.15400 0.02300 
0.07250 0.02450 -0.00100 
0.03150 0.13050 -0.01350 
-0.04100 0.05800 -0.10100 
-0.02550 0.10600 -0.09750 
-0.01800 0.12750 -0.06550 
0.00050 0.04350 -0.15000 
-0.05950 0.04200 -0.10700 
0.06600 0.09750 -0.08250 
0.02650 0.16050 -0.01950 
0.13400 0.10800 -0.15500 
0.02300 0.04800 0.06700 
0.02250 0.08250 -0.01600 
0.01700 0.05200 0.04350 
0.06450 0.06750 -0.08100 
0.03300 -0.01950 0.03200 
0.06200 0.02000 -0.03200 
0.00100 0.08950 0.04900 
0.04300 0.08950 -0.07900 
0.02100 0.07600 0.01300 
0.06000 0.04800 -0.11650 
0.04200 0.14750 -0.02050 
0.06900 0.05350 -0.11650 
0.09150 0.09200 -0.11300 
0.06300 0.08850 -0.13450 
0.07450 0.06400 -0.03900 
0.02050 0.10850 0.06700 
0.00300 0.08050 -0.02150 
0.10150 0.00450 0.00050 
0.09700 0.04350 -0.09300 
0.01550 0.03550 -0.10900 
0.02200 0.03200 0.04850 
0.07100 0.10500 -0.07700 
0.11950 0.04850 -0.06000 
0.11300 0.03400 -0.07050 
0.04000 0.07650 -0.03400 
0.00600 0.09600 -0.02850 
0.04650 0.05200 -0.04250 
0.04500 0.10400 -0.03100 
-0.01500 0.02500 -0.02300 
0.02650 0.19250 0.10200 
0.03800 0.01350 0.01800 
0.07100 0.02300 -0.00150 
0.02050 0.10000 0.00800 
0.07000 0.09800 -0.06500 
0.05100 0.04400 -0.04050 
0.04550 0.00800 -0.05450 
0.04250 0.00150 -0.14200 
0.00500 0.08750 -0.00000 
0.04450 0.10700 -0.00850 
0.07200 0.15850 -0.01300 
-0.02600 0.07550 -0.00750 
-0.03550 0.04750 -0.03950 
0.05550 0.01300 -0.05300 
0.01950 0.08100 0.01700 
-0.04100 0.17650 0.00900 
0.03350 0.06600 -0.01150 
0.13400 0.08450 -0.05650 
0.05400 0.03800 0.00650 
0.10750 0.07650 -0.08000 
0.06550 0.05600 -0.07250 
0.05200 0.15100 -0.02150 
-0.00100 0.05850 -0.05900 
0.03100 0.13300 -0.04850 
0.04850 0.12550 -0.00700 
0.04600 0.10900 -0.07800 
0.03500 0.06050 -0.05650 
-0.00400 0.14450 -0.00850 
0.01850 0.13100 -0.08500 
0.02000 0.08650 -0.02000 
-0.01050 0.09500 0.03100 
-0.00950 0.04450 0.01050 
0.06600 0.09850 0.07100 
0.02100 0.13050 0.02700 
0.07550 0.06450 -0.10250 
0.05300 0.09350 0.02950 
-0.02200 0.04250 0.01200 
0.08750 0.09050 -0.07650 
0.07900 0.08150 -0.08800 
0.14050 0.09300 -0.03550 
0.08400 0.02800 0.10150 
0.11100 0.06000 -0.09450 
0.11450 0.06600 -0.05450 
-0.00250 0.13850 -0.04550 
0.08700 0.13100 -0.04100 
0.10300 0.08650 -0.12750 
-0.02500 0.12250 0.00700 
0.03950 0.05750 0.11300 
0.12500 0.10450 -0.24050 
0.03450 0.06700 -0.11300 
0.00750 0.02150 -0.18250 
0.05950 0.09300 -0.05350 
-0.01200 0.13150 -0.10200 
0.00950 0.08000 0.00650 
0.05650 0.12600 -0.05800 
0.03950 0.09200 -0.06600 
0.02700 0.09500 -0.10650 
0.09250 0.12750 -0.10250 
0.09250 0.13150 -0.11250 
0.06800 0.16900 0.04300 
0.04750 -0.00800 0.07950 
0.09450 0.01100 -0.09300 
0.08600 0.05050 -0.01200 
0.11650 0.14350 -0.06100 
0.01850 0.08300 0.07000 