# vtk DataFile Version 2.0 
Xm, Ym, Zm, Uvecs, timestep 10139 
ASCII 
 
DATASET POLYDATA POINTS 491 float 
 -0.078   9.905 -70.820 
-13.041   2.103 -73.875 
 -4.332  10.490 -74.144 
  7.298   7.228 -67.852 
 -0.929   7.229 -71.267 
  5.059   6.018 -71.440 
-13.874   0.393 -71.215 
  6.558   1.599 -69.609 
 -2.101   2.409 -67.601 
 -3.976  -4.430 -69.255 
 11.742   6.068 -72.169 
  4.494   7.809 -68.647 
 -3.337   4.965 -67.280 
  4.466   3.708 -68.565 
  5.640  11.220 -69.960 
  1.435  12.881 -67.715 
 -8.498   5.903 -68.488 
 -0.772   9.954 -69.749 
  5.819  11.099 -65.941 
  0.331  -1.623 -70.371 
 -1.487   4.688 -66.936 
 -7.867  -4.236 -72.124 
  4.909  -4.433 -71.069 
 13.352  -0.835 -68.977 
 -9.644   0.843 -70.457 
 -0.368   6.814 -65.643 
 -1.652  10.349 -74.224 
 -2.662  -0.903 -74.831 
 -7.786   8.433 -75.880 
-10.834   8.716 -72.487 
 -6.928  -5.675 -70.117 
 -3.327  11.494 -67.706 
 -1.509   8.178 -69.483 
-10.369   5.699 -71.711 
-10.070  -1.769 -71.117 
 10.897   4.337 -67.888 
 -3.869 -12.176 -72.235 
 -2.092   8.024 -73.447 
  5.925  -3.019 -70.369 
  4.035   0.617 -64.997 
 -6.200   0.101 -71.049 
  1.259  11.424 -66.660 
 -4.122  -5.547 -69.115 
  5.569   1.050 -70.293 
 -3.519  10.111 -66.891 
  2.149 -12.227 -69.948 
 -2.252   4.876 -71.664 
-10.635  11.183 -73.335 
 -2.277   2.910 -61.547 
 -0.897  -1.343 -66.800 
  0.389  -1.245 -67.725 
  0.791  12.758 -69.129 
  1.578  -1.853 -68.692 
 -1.695   3.920 -68.924 
  5.831  10.544 -65.933 
 -5.880  13.177 -66.791 
 -0.448  12.215 -67.945 
  4.304 -12.093 -69.105 
 10.109   2.066 -68.355 
  0.298  11.314 -67.648 
 -7.287   2.565 -67.579 
-13.027  11.246 -72.685 
 -1.552   0.478 -67.046 
 11.022   7.362 -69.612 
 -1.365  -1.511 -66.764 
 -1.053  -0.711 -71.121 
 -9.325   1.301 -65.798 
 10.898 -10.715 -70.982 
 -9.684   7.940 -74.779 
 -2.832  12.416 -65.474 
  8.644   7.783 -67.925 
 -1.995  -7.013 -64.005 
 -5.239   9.083 -65.570 
 -2.109  -6.277 -65.563 
-11.920  -2.072 -76.541 
 -2.947  -5.538 -72.942 
  3.280   9.487 -68.989 
 -0.880  10.244 -65.682 
 -7.963  -6.814 -70.784 
 -7.629   5.875 -67.272 
 -4.377  -2.809 -74.535 
  1.694   6.716 -64.040 
  8.893  -1.135 -67.176 
 -6.508   2.402 -74.495 
 -9.896   6.508 -73.248 
  0.861  -7.959 -70.111 
  2.142  -9.571 -67.128 
 -7.699   0.652 -71.495 
 -2.957  -9.713 -69.043 
 -2.078  12.135 -66.425 
  2.726 -12.872 -65.442 
 -4.567 -12.607 -68.995 
-10.938   1.170 -65.034 
  2.821  -2.860 -69.017 
  6.726 -10.315 -70.879 
 -7.869   7.902 -64.534 
 -0.980  -3.929 -69.088 
 -1.142  -7.228 -74.352 
 -9.099  -8.018 -67.112 
  8.901  -4.138 -64.764 
  3.930  -4.880 -76.382 
 -3.671  -2.934 -69.196 
  4.826   9.805 -69.014 
 15.590  -7.319 -70.805 
-12.325  10.122 -69.376 
  2.524  -5.714 -65.093 
-13.815   2.563 -71.292 
 -1.869  -3.179 -68.571 
-11.214   7.841 -66.147 
  5.591   8.782 -66.612 
 -3.471   1.623 -72.888 
  4.958   6.809 -66.453 
  3.489 -10.477 -69.955 
  2.840  -4.056 -62.171 
 -6.899  -0.946 -71.022 
 -2.990   8.371 -73.643 
 -4.623  -6.273 -66.559 
 -0.617   7.904 -71.561 
  0.799  12.001 -74.894 
 12.448   5.996 -68.984 
 10.639 -11.217 -67.064 
-11.737   3.191 -73.960 
 -3.240   7.683 -64.597 
 15.898  -3.091 -68.368 
 12.224  -1.450 -71.626 
 -0.516 -10.621 -73.083 
 -0.431   7.537 -66.432 
  5.551   9.233 -63.535 
  3.652   7.996 -61.593 
 -0.500  -4.262 -67.816 
 -4.763   2.602 -64.901 
-13.751   7.572 -76.230 
-12.387   5.657 -65.618 
  4.168   2.716 -67.817 
 -8.966   8.224 -65.143 
 10.865   3.197 -68.742 
 -3.074   8.931 -64.097 
  4.875 -10.061 -66.941 
 -6.181  -5.620 -69.685 
 11.616   2.081 -65.577 
 -6.199   3.550 -63.551 
  8.154  -7.553 -71.739 
  1.151   9.244 -69.380 
-11.190   7.520 -68.404 
 -9.407  -7.693 -70.194 
-10.542   3.460 -68.112 
 -1.578  -0.066 -61.703 
 -2.967   6.475 -64.137 
 -4.031   3.663 -62.671 
  1.450  -6.643 -70.450 
 -8.668  -5.037 -69.588 
-11.017   5.617 -65.700 
  5.642  11.685 -64.476 
  7.302   4.292 -62.358 
 15.627   1.639 -69.016 
-13.909  -3.332 -70.965 
-11.786  -7.955 -69.557 
-13.043  -5.165 -69.998 
 10.474  -7.021 -73.633 
 -3.336  -8.373 -69.206 
 -4.248  10.188 -72.701 
 -5.387   8.565 -63.358 
 13.637   7.807 -68.036 
 -3.578  -0.291 -73.154 
 -5.028   6.114 -63.977 
 -7.146  -9.223 -68.683 
 -4.681   1.414 -60.821 
  6.170  -4.999 -64.433 
 -1.071  -8.111 -64.516 
 -9.390   2.711 -68.260 
 -9.700  -4.197 -64.443 
-12.066  -9.596 -71.460 
 12.143  10.041 -62.347 
 -7.047 -10.338 -74.947 
 14.913   1.676 -69.887 
  0.627 -10.450 -69.328 
  4.339  -2.741 -64.441 
 -8.748   3.656 -75.183 
  3.532  -8.589 -66.713 
 12.202  -6.847 -67.607 
-11.771  -4.657 -65.186 
 -6.745   4.987 -66.930 
-11.291   9.341 -76.751 
  1.524  -4.125 -65.119 
-13.456  -8.044 -69.619 
-15.049  11.863 -72.200 
 -2.602  -5.502 -65.144 
-11.972   8.095 -68.266 
  9.245  -6.095 -71.888 
 16.999   7.707 -66.168 
 -8.945  12.581 -68.723 
  3.535   5.207 -69.897 
 14.605  -1.269 -67.373 
  9.848   8.819 -66.797 
 -8.789   8.832 -62.721 
  4.396  -1.860 -69.881 
  9.765   3.603 -62.971 
 -3.096  -9.354 -73.520 
 -6.618 -12.229 -72.465 
 -2.889  -7.168 -71.679 
  7.758  10.386 -64.689 
  3.339 -10.100 -69.888 
 -7.158  -7.678 -68.660 
 12.503   6.486 -72.816 
  9.526  -4.514 -65.758 
 13.722   5.487 -67.296 
-11.651   3.490 -70.052 
  4.147  11.115 -71.528 
  6.315  -0.192 -71.919 
 -4.226   1.974 -69.605 
-12.119   8.987 -66.356 
 10.502   0.801 -64.088 
  0.805   6.454 -74.467 
-10.744  -9.596 -69.441 
  3.103  -0.459 -64.417 
 10.261   8.088 -68.928 
-10.212  -8.914 -70.998 
-11.979   1.778 -72.930 
  5.614  -6.341 -66.528 
 12.249  -7.367 -72.788 
 12.151   2.023 -64.272 
 -8.727   2.588 -77.906 
  4.837   2.340 -64.624 
 -9.341  -6.232 -68.484 
 15.045  -2.242 -66.983 
 10.807  -1.755 -73.466 
 17.155   7.718 -69.120 
  9.009  10.320 -64.540 
 14.123   2.283 -65.231 
 17.060   4.368 -69.358 
-14.954  -5.723 -74.426 
-14.178   8.871 -67.977 
  8.470  12.421 -63.980 
  2.341  -8.871 -69.962 
-12.084   0.770 -74.296 
  8.758  -1.269 -70.990 
-10.749  -5.902 -74.138 
 -8.595 -11.335 -65.571 
  7.354  -1.300 -67.597 
-13.653  10.981 -66.752 
 13.553   0.892 -65.113 
 -2.230  -2.499 -67.577 
 11.006   7.743 -64.672 
 13.915  -3.806 -71.132 
 -9.882  10.103 -62.225 
 15.462   5.584 -67.909 
  1.323  -9.706 -76.320 
  5.757   3.921 -66.996 
 12.650   8.561 -70.751 
  9.209  -4.454 -67.717 
 12.700  -1.549 -66.166 
 -1.099   3.152 -74.833 
-12.515  -1.762 -67.434 
  3.756  -1.585 -74.835 
-12.951  -7.608 -69.995 
 12.634  -0.058 -66.070 
 -2.507  -4.537 -68.114 
 15.137  -0.726 -65.517 
 -8.944   4.572 -69.005 
 12.543   1.913 -67.792 
-12.944  -0.222 -66.795 
-13.375 -10.506 -69.619 
  1.761   3.200 -61.388 
 -0.010   9.075 -72.866 
 -0.668  -3.123 -72.945 
 -8.631 -11.282 -70.828 
-11.781  -5.489 -73.114 
 14.951   1.851 -62.868 
 11.980   7.104 -72.272 
 -4.249  10.161 -66.602 
-15.688   6.342 -72.839 
 11.159  -7.761 -72.281 
 12.239   2.828 -65.157 
  6.566   5.914 -61.469 
  4.580   4.027 -68.618 
 -9.066  10.182 -62.938 
 -5.146  -4.279 -70.496 
 -3.641   5.327 -72.924 
 16.772  -3.660 -66.941 
 -5.345  -6.135 -74.433 
 12.366   2.348 -72.430 
 13.101  -0.172 -72.445 
  9.217  -9.691 -67.935 
  1.222   2.338 -60.563 
-11.110  -0.927 -69.757 
 -1.035  -9.003 -66.139 
 11.779  -1.448 -64.071 
 10.581   6.409 -69.667 
 15.361  -5.628 -67.736 
-10.227   4.829 -76.296 
-11.774   0.896 -72.171 
-12.229 -11.139 -69.662 
  3.273  10.861 -67.029 
 -9.713  -8.580 -75.413 
 12.657 -11.060 -69.185 
  9.582  -9.528 -73.618 
  3.446   7.585 -69.140 
  3.064   0.122 -69.059 
  0.655   8.078 -70.424 
  3.473   1.974 -70.924 
  9.797   9.102 -76.660 
-14.560   7.184 -75.657 
 -2.151   2.824 -72.118 
 -6.502  -3.016 -69.636 
 -4.570 -10.390 -64.540 
-10.114  -1.559 -73.587 
  1.223  -5.329 -69.733 
  4.107   3.829 -76.139 
 -8.694  -5.457 -71.838 
  6.264   6.363 -71.649 
  1.925   0.048 -70.405 
  9.669 -10.541 -68.567 
  8.068 -13.052 -65.863 
  1.426   1.090 -66.058 
 -4.960   3.546 -77.222 
  8.376  -7.252 -64.127 
 13.178  10.535 -72.441 
  0.263  -2.367 -69.226 
 -1.896  -2.564 -68.964 
 -3.671  -3.475 -72.155 
  3.804  -8.310 -71.577 
 -0.005   3.382 -61.866 
  3.218  -1.466 -68.029 
 -4.863 -10.942 -70.975 
  1.766   6.749 -61.644 
 -9.353  -0.950 -66.512 
  1.319  -8.986 -61.439 
-16.157  -0.001 -72.616 
  5.240  12.222 -70.438 
  3.329 -10.967 -65.255 
 -7.858   2.933 -61.533 
  2.292   5.007 -62.197 
 -0.373   2.041 -61.729 
 -7.875  -0.533 -70.472 
  8.889   5.890 -69.722 
 11.437  -0.989 -64.608 
-16.164   4.583 -74.963 
-14.464   3.109 -69.941 
 -1.531   0.911 -64.178 
  1.886  -8.953 -66.299 
  2.276   7.309 -63.090 
 -7.616  -0.241 -68.030 
  6.944  -9.084 -69.085 
  7.184  10.247 -71.095 
  1.889   4.819 -64.436 
-12.804  -8.540 -64.935 
  1.004   3.083 -67.876 
  7.692   3.549 -72.221 
 -4.021 -10.515 -68.938 
  0.061   1.327 -63.007 
 -5.728   6.656 -64.317 
 -5.141  11.176 -72.163 
-13.127  -3.518 -64.465 
  1.351  13.012 -63.263 
 11.542 -11.323 -63.254 
 -4.204   8.456 -70.722 
  8.436   9.566 -67.588 
 -0.848   8.597 -61.073 
 15.646   6.982 -68.594 
-12.864   9.639 -65.403 
 -0.002  11.889 -69.224 
 -9.526  11.119 -68.291 
  5.271  -1.935 -74.557 
 -3.301  -8.674 -66.901 
  7.655  -6.175 -64.505 
 -2.689   7.778 -76.773 
 15.935 -10.980 -64.866 
 -7.271  10.612 -68.846 
  2.234  -2.508 -62.094 
  9.747   6.918 -77.228 
 16.350  11.832 -71.126 
  6.721  -2.026 -70.535 
-14.138  -1.664 -74.269 
 -7.147 -11.111 -62.298 
 12.812  11.925 -70.169 
 16.017 -11.085 -70.689 
 16.778 -12.758 -69.400 
 15.985   3.877 -67.498 
 15.743  10.315 -66.608 
-12.041  10.865 -69.631 
 -9.607   1.981 -75.770 
 -2.626  -8.134 -65.481 
-13.378  -4.266 -72.942 
 -6.946 -11.305 -67.873 
  5.617  -0.563 -63.017 
-12.020   2.970 -70.649 
 11.056  -6.827 -63.545 
  3.991  -2.275 -65.301 
-15.156   9.727 -70.939 
  8.656  -1.136 -61.139 
 12.685 -12.471 -65.840 
-13.223   3.620 -70.655 
 -8.397  -5.914 -71.460 
 -7.976   9.671 -59.455 
  5.959  -2.018 -68.400 
  6.697 -11.060 -71.890 
  1.452   3.159 -68.671 
 -7.335 -12.811 -66.587 
  3.053 -11.201 -65.708 
 10.777   0.613 -73.007 
-10.136  -5.512 -74.996 
  9.985  12.988 -63.258 
 -9.188 -10.633 -65.899 
 13.008   6.677 -62.056 
-13.692   0.711 -69.885 
  0.495  11.603 -67.064 
 14.324  -4.470 -63.397 
  9.096   6.565 -73.612 
  4.906  -7.206 -66.114 
 12.006 -10.573 -71.296 
 -4.851  10.012 -61.513 
  1.619  -3.385 -62.797 
 -1.954  -2.745 -64.630 
  9.908  -9.620 -72.171 
 14.575   3.441 -73.358 
 13.807  -6.495 -73.098 
  3.247  10.610 -65.207 
 -8.841  -7.039 -62.665 
 15.186  -0.027 -69.862 
 12.974   2.721 -73.595 
 12.416   9.130 -62.030 
 14.563   1.480 -67.261 
  7.139 -11.864 -63.829 
-10.482   3.563 -63.203 
 17.424  -3.805 -65.685 
 -0.197  10.339 -61.760 
 -6.299 -11.662 -65.663 
 13.486  11.775 -70.037 
 14.555  -8.752 -69.036 
  0.139 -12.616 -71.524 
 -9.837   1.406 -75.700 
 13.570  12.332 -73.983 
  3.381  -6.252 -76.187 
 -8.024   9.243 -64.122 
 10.370 -12.949 -63.994 
-16.092  -1.438 -71.692 
-10.259   5.873 -60.550 
 12.446 -10.388 -62.215 
 -9.902   2.915 -73.385 
 15.698  -0.660 -75.460 
-15.064   3.627 -69.032 
-12.666  -6.575 -76.310 
  4.568 -11.672 -75.401 
 -7.803   6.092 -63.506 
  1.254  10.347 -72.862 
 15.435  10.717 -62.998 
 -2.019  -6.479 -71.403 
  3.372   9.400 -60.002 
 14.287  -7.854 -70.154 
 12.357   3.112 -66.341 
-15.434   0.750 -74.718 
  9.386  -5.729 -71.865 
 14.543  -3.471 -70.333 
-13.222  -6.202 -75.835 
 -0.554   5.659 -72.392 
 10.499   2.713 -62.347 
  4.047  -3.567 -75.252 
  4.319  -8.988 -70.221 
  4.192   9.954 -74.486 
-13.050   4.394 -64.203 
 18.650   5.287 -70.502 
 -4.466   7.486 -66.585 
 11.845 -11.576 -64.904 
 -3.793  -8.281 -66.619 
  0.261   5.735 -64.632 
 13.790   7.670 -62.835 
 11.482  -3.000 -62.865 
 10.175  11.314 -69.787 
  4.577   4.041 -60.604 
  7.142  -7.386 -68.196 
 13.527   3.479 -68.793 
 13.858  -5.506 -61.790 
  5.338 -12.791 -69.638 
-11.267   6.081 -59.965 
  1.484  -4.686 -77.297 
  4.021   0.890 -68.431 
 -4.776  11.436 -76.225 
-12.633   8.910 -74.776 
  0.427   5.024 -71.746 
-10.192   9.144 -75.773 
 -6.252 -10.105 -62.154 
-14.966  -7.063 -73.334 
 -8.991  12.847 -75.400 
-14.573  12.432 -72.475 
-11.057  -5.587 -72.719 
 -6.553 -10.047 -66.090 
 -5.756   7.193 -67.367 
 -0.147   6.324 -68.041 
  1.261  -2.158 -60.253 
-10.624   0.167 -78.669 
  2.532  -2.611 -71.921 

 VERTICES 491 982 
1 0 
1 1 
1 2 
1 3 
1 4 
1 5 
1 6 
1 7 
1 8 
1 9 
1 10 
1 11 
1 12 
1 13 
1 14 
1 15 
1 16 
1 17 
1 18 
1 19 
1 20 
1 21 
1 22 
1 23 
1 24 
1 25 
1 26 
1 27 
1 28 
1 29 
1 30 
1 31 
1 32 
1 33 
1 34 
1 35 
1 36 
1 37 
1 38 
1 39 
1 40 
1 41 
1 42 
1 43 
1 44 
1 45 
1 46 
1 47 
1 48 
1 49 
1 50 
1 51 
1 52 
1 53 
1 54 
1 55 
1 56 
1 57 
1 58 
1 59 
1 60 
1 61 
1 62 
1 63 
1 64 
1 65 
1 66 
1 67 
1 68 
1 69 
1 70 
1 71 
1 72 
1 73 
1 74 
1 75 
1 76 
1 77 
1 78 
1 79 
1 80 
1 81 
1 82 
1 83 
1 84 
1 85 
1 86 
1 87 
1 88 
1 89 
1 90 
1 91 
1 92 
1 93 
1 94 
1 95 
1 96 
1 97 
1 98 
1 99 
1 100 
1 101 
1 102 
1 103 
1 104 
1 105 
1 106 
1 107 
1 108 
1 109 
1 110 
1 111 
1 112 
1 113 
1 114 
1 115 
1 116 
1 117 
1 118 
1 119 
1 120 
1 121 
1 122 
1 123 
1 124 
1 125 
1 126 
1 127 
1 128 
1 129 
1 130 
1 131 
1 132 
1 133 
1 134 
1 135 
1 136 
1 137 
1 138 
1 139 
1 140 
1 141 
1 142 
1 143 
1 144 
1 145 
1 146 
1 147 
1 148 
1 149 
1 150 
1 151 
1 152 
1 153 
1 154 
1 155 
1 156 
1 157 
1 158 
1 159 
1 160 
1 161 
1 162 
1 163 
1 164 
1 165 
1 166 
1 167 
1 168 
1 169 
1 170 
1 171 
1 172 
1 173 
1 174 
1 175 
1 176 
1 177 
1 178 
1 179 
1 180 
1 181 
1 182 
1 183 
1 184 
1 185 
1 186 
1 187 
1 188 
1 189 
1 190 
1 191 
1 192 
1 193 
1 194 
1 195 
1 196 
1 197 
1 198 
1 199 
1 200 
1 201 
1 202 
1 203 
1 204 
1 205 
1 206 
1 207 
1 208 
1 209 
1 210 
1 211 
1 212 
1 213 
1 214 
1 215 
1 216 
1 217 
1 218 
1 219 
1 220 
1 221 
1 222 
1 223 
1 224 
1 225 
1 226 
1 227 
1 228 
1 229 
1 230 
1 231 
1 232 
1 233 
1 234 
1 235 
1 236 
1 237 
1 238 
1 239 
1 240 
1 241 
1 242 
1 243 
1 244 
1 245 
1 246 
1 247 
1 248 
1 249 
1 250 
1 251 
1 252 
1 253 
1 254 
1 255 
1 256 
1 257 
1 258 
1 259 
1 260 
1 261 
1 262 
1 263 
1 264 
1 265 
1 266 
1 267 
1 268 
1 269 
1 270 
1 271 
1 272 
1 273 
1 274 
1 275 
1 276 
1 277 
1 278 
1 279 
1 280 
1 281 
1 282 
1 283 
1 284 
1 285 
1 286 
1 287 
1 288 
1 289 
1 290 
1 291 
1 292 
1 293 
1 294 
1 295 
1 296 
1 297 
1 298 
1 299 
1 300 
1 301 
1 302 
1 303 
1 304 
1 305 
1 306 
1 307 
1 308 
1 309 
1 310 
1 311 
1 312 
1 313 
1 314 
1 315 
1 316 
1 317 
1 318 
1 319 
1 320 
1 321 
1 322 
1 323 
1 324 
1 325 
1 326 
1 327 
1 328 
1 329 
1 330 
1 331 
1 332 
1 333 
1 334 
1 335 
1 336 
1 337 
1 338 
1 339 
1 340 
1 341 
1 342 
1 343 
1 344 
1 345 
1 346 
1 347 
1 348 
1 349 
1 350 
1 351 
1 352 
1 353 
1 354 
1 355 
1 356 
1 357 
1 358 
1 359 
1 360 
1 361 
1 362 
1 363 
1 364 
1 365 
1 366 
1 367 
1 368 
1 369 
1 370 
1 371 
1 372 
1 373 
1 374 
1 375 
1 376 
1 377 
1 378 
1 379 
1 380 
1 381 
1 382 
1 383 
1 384 
1 385 
1 386 
1 387 
1 388 
1 389 
1 390 
1 391 
1 392 
1 393 
1 394 
1 395 
1 396 
1 397 
1 398 
1 399 
1 400 
1 401 
1 402 
1 403 
1 404 
1 405 
1 406 
1 407 
1 408 
1 409 
1 410 
1 411 
1 412 
1 413 
1 414 
1 415 
1 416 
1 417 
1 418 
1 419 
1 420 
1 421 
1 422 
1 423 
1 424 
1 425 
1 426 
1 427 
1 428 
1 429 
1 430 
1 431 
1 432 
1 433 
1 434 
1 435 
1 436 
1 437 
1 438 
1 439 
1 440 
1 441 
1 442 
1 443 
1 444 
1 445 
1 446 
1 447 
1 448 
1 449 
1 450 
1 451 
1 452 
1 453 
1 454 
1 455 
1 456 
1 457 
1 458 
1 459 
1 460 
1 461 
1 462 
1 463 
1 464 
1 465 
1 466 
1 467 
1 468 
1 469 
1 470 
1 471 
1 472 
1 473 
1 474 
1 475 
1 476 
1 477 
1 478 
1 479 
1 480 
1 481 
1 482 
1 483 
1 484 
1 485 
1 486 
1 487 
1 488 
1 489 
1 490 
POINT_DATA 491 
SCALARS MeanU double 1 
LOOKUP_TABLE default
0.09412 
0.15932 
0.09141 
0.06025 
0.13219 
0.14863 
0.19046 
0.21494 
0.14858 
0.21122 
0.17034 
0.05249 
0.08073 
0.13447 
0.05111 
0.13389 
0.11828 
0.15455 
0.11529 
0.24253 
0.09086 
0.06092 
0.23559 
0.17037 
0.24215 
0.07068 
0.14743 
0.14929 
0.06803 
0.20564 
0.11477 
0.11721 
0.14998 
0.23955 
0.07918 
0.16348 
0.15728 
0.18065 
0.19069 
0.29844 
0.23035 
0.08490 
0.24178 
0.23331 
0.09873 
0.12580 
0.17740 
0.18862 
0.15699 
0.30596 
0.27278 
0.07707 
0.24086 
0.18688 
0.12001 
0.09965 
0.07218 
0.07649 
0.14448 
0.07821 
0.22148 
0.09286 
0.24139 
0.11702 
0.24886 
0.24450 
0.21167 
0.15634 
0.12623 
0.09246 
0.09360 
0.15727 
0.07762 
0.14244 
0.15034 
0.09931 
0.09111 
0.12765 
0.18365 
0.08125 
0.11503 
0.15118 
0.13091 
0.16243 
0.14275 
0.17382 
0.16459 
0.26326 
0.13669 
0.15704 
0.11302 
0.16384 
0.17583 
0.18977 
0.14334 
0.07996 
0.15260 
0.11118 
0.24666 
0.19593 
0.06483 
0.20064 
0.06810 
0.16218 
0.13975 
0.31552 
0.18815 
0.17315 
0.08065 
0.08588 
0.25607 
0.07850 
0.08644 
0.26489 
0.19807 
0.14495 
0.20543 
0.09985 
0.13876 
0.12469 
0.14878 
0.14154 
0.10563 
0.07796 
0.09217 
0.07492 
0.13234 
0.08563 
0.12536 
0.15931 
0.17326 
0.09065 
0.08730 
0.20392 
0.05864 
0.08826 
0.09581 
0.11552 
0.15775 
0.10509 
0.19728 
0.17967 
0.10983 
0.13837 
0.20585 
0.23314 
0.21904 
0.08449 
0.16000 
0.10316 
0.14291 
0.12726 
0.07502 
0.14385 
0.05938 
0.13899 
0.08480 
0.12349 
0.16041 
0.10251 
0.10209 
0.14740 
0.12900 
0.22899 
0.06438 
0.23895 
0.18170 
0.26346 
0.12156 
0.27129 
0.22930 
0.07542 
0.09778 
0.18615 
0.06370 
0.05645 
0.32543 
0.14015 
0.25916 
0.07455 
0.30532 
0.12162 
0.08964 
0.26407 
0.13288 
0.12386 
0.16350 
0.13307 
0.19951 
0.11350 
0.16060 
0.19527 
0.19933 
0.06657 
0.11499 
0.17553 
0.10574 
0.12294 
0.16785 
0.09464 
0.10302 
0.13021 
0.22812 
0.12697 
0.17869 
0.13136 
0.28567 
0.06668 
0.17609 
0.23679 
0.11447 
0.13227 
0.07503 
0.11221 
0.25568 
0.12051 
0.10592 
0.09554 
0.17115 
0.10781 
0.11264 
0.13284 
0.25914 
0.10373 
0.12089 
0.19593 
0.18047 
0.09833 
0.15471 
0.11442 
0.15864 
0.13796 
0.07829 
0.13311 
0.13707 
0.36476 
0.10627 
0.14728 
0.23920 
0.11929 
0.14786 
0.14572 
0.08991 
0.17256 
0.10005 
0.16207 
0.09690 
0.10534 
0.17933 
0.13611 
0.11410 
0.14355 
0.18451 
0.17752 
0.10638 
0.10981 
0.17063 
0.11875 
0.15879 
0.10868 
0.16899 
0.09616 
0.19043 
0.06295 
0.10528 
0.08634 
0.15158 
0.11942 
0.14139 
0.09032 
0.25084 
0.08450 
0.12696 
0.15547 
0.11516 
0.13706 
0.17866 
0.14778 
0.06178 
0.11477 
0.11745 
0.08183 
0.12632 
0.26844 
0.21235 
0.08425 
0.16645 
0.17403 
0.09855 
0.13986 
0.11034 
0.06783 
0.03722 
0.13093 
0.20719 
0.19836 
0.05614 
0.15874 
0.11780 
0.16495 
0.23306 
0.12011 
0.17061 
0.19825 
0.10349 
0.10386 
0.04926 
0.09087 
0.07423 
0.17091 
0.13343 
0.11417 
0.10226 
0.26340 
0.14325 
0.23443 
0.19518 
0.15199 
0.17291 
0.14531 
0.14111 
0.16359 
0.24345 
0.12803 
0.13264 
0.22047 
0.13000 
0.14555 
0.08468 
0.10151 
0.10578 
0.21048 
0.21127 
0.21544 
0.14182 
0.10698 
0.22408 
0.20156 
0.25425 
0.21798 
0.14939 
0.22104 
0.19661 
0.06457 
0.16125 
0.15222 
0.19572 
0.23360 
0.11318 
0.23930 
0.06457 
0.13331 
0.14706 
0.14302 
0.11082 
0.12466 
0.08725 
0.09039 
0.16029 
0.11747 
0.11389 
0.18121 
0.13325 
0.12922 
0.18570 
0.18143 
0.11574 
0.10731 
0.17720 
0.24094 
0.11650 
0.18838 
0.20834 
0.23498 
0.16001 
0.09809 
0.04342 
0.17413 
0.17127 
0.18237 
0.14964 
0.13308 
0.23958 
0.15741 
0.28438 
0.22742 
0.23178 
0.33353 
0.16687 
0.08783 
0.04824 
0.25553 
0.12630 
0.10037 
0.27706 
0.12934 
0.24467 
0.09050 
0.09330 
0.18489 
0.06186 
0.10748 
0.17332 
0.11665 
0.11338 
0.07934 
0.19461 
0.22245 
0.22083 
0.16493 
0.13920 
0.18724 
0.21787 
0.10635 
0.07914 
0.08929 
0.08912 
0.32519 
0.07254 
0.08986 
0.10570 
0.15061 
0.12215 
0.10455 
0.09622 
0.08767 
0.19201 
0.18163 
0.08848 
0.09776 
0.12248 
0.03753 
0.10783 
0.11706 
0.09249 
0.14127 
0.15043 
0.11065 
0.14087 
0.11574 
0.21348 
0.05805 
0.21617 
0.11623 
0.07937 
0.17573 
0.13603 
0.09402 
0.19869 
0.14349 
0.22970 
0.25015 
0.08866 
0.11046 
0.17278 
0.10919 
0.09522 
0.11309 
0.06966 
0.15975 
0.18308 
0.07059 
0.07987 
0.10662 
0.05159 
0.11354 
0.19184 
0.10213 
0.13510 
0.19033 
0.12725 
0.13443 
0.08748 
0.10326 
0.05021 
0.17177 
0.12075 
0.05576 
0.19410 
0.15407 
0.17314 
0.15127 
0.10596 
0.07688 
0.19514 
0.26003 
0.07172 
0.06741 
0.23081 
0.08467 
0.15630 

 VECTORS Umean float 
-0.01300 0.09200 0.01500 
0.00550 0.14350 -0.06900 
0.01700 0.08550 -0.02750 
-0.01600 0.03850 -0.04350 
0.06150 0.11700 0.00150 
0.07350 0.09550 -0.08700 
0.03900 0.07650 -0.17000 
0.07500 0.05050 -0.19500 
-0.02550 0.10300 -0.10400 
0.14250 0.09250 -0.12550 
0.11950 0.04800 -0.11150 
-0.00950 0.03650 -0.03650 
-0.01950 0.07600 0.01900 
0.07700 0.01950 -0.10850 
-0.03000 0.03650 -0.01950 
-0.03900 0.03900 0.12200 
-0.02200 0.09200 -0.07100 
-0.00350 0.15450 0.00200 
-0.00550 0.10300 0.05150 
0.04350 0.10850 -0.21250 
0.03500 0.07500 -0.03750 
0.03700 0.04050 -0.02650 
0.11150 0.00400 -0.20750 
0.05300 0.14350 -0.07500 
0.08400 0.13450 -0.18300 
-0.05000 0.04600 -0.01950 
-0.00150 0.13850 -0.05050 
0.02750 0.12100 -0.08300 
0.01850 0.05500 -0.03550 
0.12750 0.16100 -0.01050 
0.03800 0.09500 -0.05200 
-0.00400 0.08650 0.07900 
0.01600 0.14900 -0.00600 
0.05600 0.21800 -0.08200 
0.06500 0.02450 -0.03800 
0.03150 0.16000 0.01150 
0.10900 0.02750 -0.11000 
0.05500 0.12800 -0.11500 
0.13650 0.03100 -0.12950 
0.12050 0.12050 -0.24500 
0.11200 0.06500 -0.19050 
-0.02750 0.06550 0.04650 
0.17450 0.10600 -0.12950 
0.10050 0.08300 -0.19350 
-0.02100 0.08950 0.03600 
0.05250 0.05450 -0.10050 
0.08250 0.12800 -0.09100 
-0.04400 0.17350 -0.05950 
0.08750 0.08650 -0.09750 
0.08650 0.14350 -0.25600 
0.06350 0.09550 -0.24750 
-0.02950 0.07050 0.01000 
0.08150 0.08650 -0.20950 
0.06550 0.17450 0.01350 
-0.00750 0.11100 0.04500 
-0.00750 0.04800 0.08700 
-0.03350 0.05350 0.03500 
0.06500 0.02800 -0.02900 
0.04100 0.11550 -0.07650 
-0.01750 0.07050 0.02900 
-0.00250 0.08500 -0.20450 
0.02450 0.08950 -0.00350 
0.08400 0.08050 -0.21150 
0.04650 0.07050 -0.08100 
0.08250 0.12850 -0.19650 
0.02750 0.10200 -0.22050 
0.07650 0.14350 -0.13550 
0.03250 0.04550 -0.14600 
-0.02400 0.09750 -0.07650 
0.02800 0.05950 0.06500 
-0.03900 0.07800 -0.03400 
0.06300 0.11850 -0.08200 
0.00450 0.07400 0.02300 
0.08350 0.08550 -0.07750 
0.02100 0.09750 -0.11250 
0.05300 -0.00900 -0.08350 
-0.00400 0.08200 0.03950 
0.00800 0.12250 0.03500 
0.10150 0.11500 -0.10100 
-0.00400 0.07500 -0.03100 
-0.04550 0.08000 -0.06900 
0.05000 0.09550 -0.10600 
0.00100 0.10900 -0.07250 
-0.02350 0.14950 -0.05900 
0.04050 0.12100 -0.06400 
0.11950 -0.01350 -0.12550 
0.09800 -0.05100 -0.12200 
0.10300 0.13300 -0.20250 
0.08400 0.07700 -0.07550 
0.03900 0.14500 0.04600 
0.03950 0.08200 0.06700 
0.09900 0.01650 -0.12950 
0.04800 0.11000 -0.12850 
0.09600 0.07100 -0.14750 
0.10750 0.04200 -0.08500 
-0.01900 0.07100 -0.03150 
0.10050 0.04650 -0.10500 
0.07600 0.08100 0.00500 
0.04450 0.10750 -0.21750 
0.11400 0.03700 -0.15500 
0.05550 0.03350 0.00050 
0.16800 0.06550 -0.08800 
0.02100 0.06400 0.01000 
0.02950 0.11450 -0.11100 
0.02350 0.13750 0.00850 
0.17800 0.11450 -0.23400 
-0.00100 0.14450 -0.12050 
0.14050 0.03750 -0.09400 
0.04250 0.06850 -0.00250 
0.01850 0.08300 -0.01200 
0.11600 0.12350 -0.19200 
0.01950 0.07600 -0.00250 
0.06500 0.01050 -0.05600 
0.09850 0.05350 -0.24000 
0.14450 0.09850 -0.09300 
0.05850 0.12200 -0.05200 
0.12400 0.12400 -0.10700 
0.01900 0.09300 -0.03100 
-0.08200 0.10900 -0.02550 
0.06550 0.06350 -0.08500 
0.03300 0.00450 -0.14500 
0.02100 0.11850 -0.07450 
-0.05550 0.08900 -0.01250 
0.06650 0.04050 0.00400 
0.01700 0.02150 -0.08800 
0.06150 0.02950 -0.03100 
-0.02050 0.12950 -0.01800 
-0.04300 0.07350 0.00900 
0.01600 0.05700 0.11050 
0.12650 0.07900 -0.05600 
0.08000 0.08800 -0.12600 
-0.00450 0.09050 0.00250 
-0.00950 0.03700 -0.07850 
0.04300 0.03350 -0.19650 
-0.00150 0.05150 -0.02800 
0.02300 0.08350 0.01700 
-0.02900 0.08850 0.02250 
0.11100 0.01350 -0.02900 
0.05150 0.12000 -0.08850 
0.05150 0.09100 -0.01050 
0.05950 0.08050 -0.17000 
0.12450 0.03400 -0.12500 
-0.02400 0.09750 0.04450 
0.04500 0.09050 -0.09450 
0.03750 0.05050 -0.19600 
0.02800 0.10650 -0.20550 
0.04000 0.06750 -0.20450 
-0.01300 0.07300 -0.04050 
0.05000 0.05150 -0.14300 
0.09200 -0.00400 -0.04650 
0.00550 0.05450 -0.13200 
0.01250 0.03400 -0.12200 
-0.00900 0.07100 0.02250 
0.08000 0.09350 -0.07450 
0.00200 0.05150 -0.02950 
0.05050 0.06500 -0.11200 
-0.00400 0.05050 -0.06800 
0.02550 0.03550 -0.11550 
0.03850 0.03150 -0.15250 
0.03800 0.07550 -0.05800 
0.04550 0.08650 -0.02950 
-0.07500 0.12600 0.01500 
0.08400 0.05850 -0.07850 
0.06000 0.09400 -0.20000 
0.01400 0.05650 0.02750 
0.06950 0.03450 -0.22600 
0.04050 0.12550 -0.12500 
0.10600 0.02400 -0.24000 
0.05250 0.06800 -0.08600 
0.05400 0.15000 -0.21950 
0.02900 0.14650 -0.17400 
0.04200 0.01800 -0.06000 
0.04100 0.07300 0.05050 
0.07150 0.09900 -0.14050 
0.01750 0.04550 -0.04100 
0.05050 0.02450 0.00600 
0.12200 0.11600 -0.27850 
0.02900 0.12100 -0.06450 
0.16850 0.03900 -0.19300 
0.02800 0.05200 -0.04550 
0.10850 0.13300 -0.25250 
0.00650 0.05650 -0.10750 
0.01600 0.07400 -0.04800 
0.14700 0.14900 -0.16100 
-0.02100 0.09500 -0.09050 
-0.01300 0.12200 -0.01700 
0.08100 0.12850 -0.06050 
0.09450 0.08750 0.03350 
0.11700 0.04900 -0.15400 
0.00300 0.10500 -0.04300 
-0.06200 0.10350 0.10600 
0.09150 0.17250 0.00150 
0.08650 0.16600 -0.06850 
0.02700 0.04450 -0.04150 
-0.03100 0.10050 -0.04650 
0.08500 0.05600 -0.14300 
0.07550 0.06550 -0.03450 
0.08450 0.03650 -0.08150 
0.09850 0.02550 -0.13350 
-0.00800 0.05150 -0.07900 
0.00600 0.02600 0.09950 
0.10400 0.01450 -0.07700 
0.09350 0.06550 -0.19750 
0.10050 0.03450 -0.06950 
0.13150 0.04450 -0.11250 
-0.01150 0.12650 -0.03350 
0.08950 0.15450 -0.22300 
-0.05400 0.03900 0.00300 
0.14200 0.09050 -0.05150 
-0.00750 0.08850 -0.21950 
0.07300 0.08800 0.00550 
0.02150 0.06700 -0.11200 
0.04900 0.05150 -0.02400 
-0.01500 0.02650 -0.10800 
0.08000 0.10700 -0.21800 
0.01250 0.08450 -0.08500 
0.03350 0.01400 -0.09950 
0.06850 0.05000 -0.04400 
0.04950 0.01050 -0.16350 
-0.03550 0.04250 -0.09250 
0.02550 0.08650 -0.06750 
0.04250 0.11550 -0.05000 
0.19100 0.08700 -0.15200 
0.02050 0.01550 -0.10050 
0.01500 0.11950 0.01050 
0.11100 0.01750 -0.16050 
0.14900 0.01300 -0.10100 
-0.02850 0.05550 -0.07600 
0.06550 0.12200 0.06900 
0.05450 0.06100 -0.08000 
-0.02900 0.14200 -0.06450 
0.04200 0.12400 -0.04350 
-0.02850 0.06850 0.02500 
0.09150 0.03400 -0.09050 
0.04550 0.12750 0.02150 
0.23650 0.13350 -0.24350 
0.07850 0.03500 -0.06250 
0.06250 0.06400 -0.11700 
0.15050 -0.01250 -0.18550 
0.02850 0.05300 0.10300 
0.03400 0.12250 -0.07550 
0.08900 0.06400 -0.09600 
0.03800 0.08000 -0.01550 
0.08600 0.06550 -0.13450 
-0.03700 0.09100 -0.01900 
0.02400 0.15000 -0.05650 
0.09150 0.00500 -0.03150 
0.05400 0.02800 -0.08600 
0.14900 0.01600 -0.09850 
0.08100 0.03950 -0.10200 
-0.00150 0.08850 -0.07200 
0.05500 0.13150 0.01700 
0.10450 0.04250 -0.14600 
0.12650 0.09750 -0.07750 
0.00600 0.08400 -0.06500 
0.02350 0.10050 -0.03750 
0.15100 0.06050 -0.05150 
0.00300 0.11800 -0.01300 
-0.00850 0.09150 -0.12950 
0.01900 0.10700 0.00150 
0.08450 0.05650 -0.13500 
0.06400 0.06650 0.02700 
0.06550 0.08650 -0.15650 
-0.01000 0.06150 -0.00900 
0.07950 0.06850 -0.00850 
0.07250 -0.00600 -0.04650 
0.08550 0.08750 -0.08950 
0.01450 0.10500 0.05500 
0.10250 0.03600 -0.09050 
-0.02850 0.07200 0.04650 
-0.02350 0.21200 -0.13200 
0.03150 -0.00800 -0.07800 
0.03100 0.11400 -0.04650 
0.07550 0.10800 -0.08250 
0.06900 0.03450 -0.08550 
-0.03350 0.12450 -0.04650 
0.09150 0.10750 -0.10950 
0.03650 0.14300 -0.00750 
0.04100 0.04600 0.00450 
0.00700 0.08200 -0.08000 
0.02900 0.05050 -0.10200 
0.02400 0.04200 -0.06600 
0.09600 0.02050 -0.07950 
0.00300 0.16400 -0.21250 
0.09300 0.11550 -0.15200 
0.05750 0.04550 -0.04150 
0.03150 0.13300 0.09500 
0.08500 0.14550 -0.04350 
0.04650 0.04300 -0.07550 
-0.02050 0.10550 -0.08950 
0.03600 0.06250 -0.08350 
0.05250 0.03900 -0.01800 
-0.00200 0.03500 -0.01250 
0.00250 0.10900 -0.07250 
0.09950 0.03900 -0.17750 
0.10750 0.02000 -0.16550 
-0.01000 0.05150 -0.02000 
0.05950 0.06300 -0.13300 
0.01600 0.11000 -0.03900 
0.05950 0.11900 -0.09750 
0.11250 0.10250 -0.17650 
-0.00750 0.08650 -0.08300 
-0.00850 0.15150 -0.07800 
0.12850 0.13650 -0.06450 
0.08600 -0.03100 -0.04850 
0.03250 0.04650 -0.08700 
0.04700 0.00700 0.01300 
0.04050 0.07600 -0.02900 
0.01700 0.06050 -0.03950 
0.09950 0.11500 -0.07800 
0.05600 0.11900 -0.02250 
0.09250 -0.03250 -0.05850 
0.07500 0.01850 -0.06700 
0.05650 0.12200 -0.22650 
0.04350 0.05000 -0.12700 
0.17500 0.01750 -0.15500 
0.13600 0.00050 -0.14000 
0.05650 0.04850 -0.13250 
0.06450 0.03300 -0.15700 
0.03300 0.01200 -0.14100 
0.10800 0.04300 -0.08000 
0.08700 0.11450 -0.07800 
0.10450 0.05650 -0.21250 
0.10350 0.05850 -0.04750 
0.06600 0.04100 -0.10750 
0.10000 0.17200 -0.09500 
0.06850 0.02550 -0.10750 
0.06400 0.08300 -0.10100 
-0.04100 0.02700 -0.06900 
0.09850 0.02350 0.00700 
0.08750 0.05800 0.01300 
0.13050 0.16450 0.01450 
0.07150 0.13600 -0.14500 
0.10000 0.10400 -0.16000 
0.10600 0.06250 -0.07050 
-0.08400 0.06300 0.02050 
0.01450 0.14700 -0.16850 
0.06000 0.11800 -0.15200 
0.09900 0.11500 -0.20400 
0.17300 0.07100 -0.11200 
0.03600 0.10050 -0.10450 
0.03200 0.09500 -0.19700 
0.11200 -0.00550 -0.16150 
-0.02750 -0.03900 -0.04350 
0.05400 0.12350 -0.08850 
0.12500 0.07400 -0.04550 
-0.01750 0.06850 -0.18250 
0.11550 0.09300 -0.18050 
0.06600 0.06650 -0.06350 
0.08300 0.11200 -0.19450 
-0.01000 0.05950 -0.02300 
-0.00200 0.09450 -0.09400 
0.04300 0.11600 -0.07950 
-0.02200 0.07700 0.11850 
-0.04100 0.07550 -0.07000 
-0.00550 0.12200 -0.02500 
0.01500 0.06250 -0.05900 
-0.05000 0.07300 -0.01850 
0.14650 0.03700 -0.05350 
0.10500 0.01500 0.05050 
-0.02750 0.10500 0.03450 
0.02350 0.17950 -0.00800 
0.10300 0.07500 -0.03900 
0.09450 0.03100 -0.08250 
0.14950 0.01200 -0.10950 
0.01950 0.14100 -0.11250 
0.03650 0.06150 -0.09100 
0.00450 0.09800 0.04350 
0.08850 0.08550 -0.12750 
0.12950 0.12650 -0.15900 
0.02200 0.04050 -0.10700 
0.14500 0.06450 -0.10150 
0.05900 0.10500 -0.17000 
0.13200 -0.01250 -0.19400 