# vtk DataFile Version 2.0 
Xm, Ym, Zm, Uvecs, timestep 10167 
ASCII 
 
DATASET POLYDATA POINTS 472 float 
 13.331   0.602 -71.270 
 10.502   2.295 -71.159 
 15.319   5.155 -72.606 
 -7.368   5.139 -65.626 
 -2.394   8.317 -70.827 
  1.765   3.520 -69.168 
  7.183   3.799 -70.019 
 -2.531 -10.925 -71.281 
  1.188   6.545 -67.663 
 -9.755   1.959 -70.919 
  7.512   0.935 -72.151 
 -2.354   4.787 -70.873 
  0.746  -5.205 -74.276 
 -4.264  -5.361 -75.396 
-10.815   3.545 -71.492 
  4.027   7.136 -68.371 
  2.470  -8.857 -64.208 
 -2.093   5.175 -68.041 
  4.988   6.657 -75.073 
  2.065   7.523 -68.348 
  0.025   3.255 -67.517 
  2.783   4.527 -67.345 
  2.878   4.359 -71.480 
 -0.893  -9.796 -71.134 
  6.042   5.069 -67.481 
-13.445  -6.942 -74.718 
  4.277   2.141 -68.587 
  8.956   2.478 -70.410 
  6.229  -2.101 -69.502 
 -0.717  -2.370 -72.804 
  6.803   5.471 -74.143 
  7.560   8.900 -70.194 
  9.776   6.794 -70.820 
 -0.124  12.195 -67.556 
 11.632  -2.808 -73.156 
  4.826  11.101 -68.285 
  5.683 -10.688 -73.557 
  2.109   5.513 -68.861 
  9.817   8.851 -68.563 
 -2.333   9.142 -67.969 
 -0.366 -10.000 -70.960 
-11.210   2.648 -69.435 
 -6.148  -3.555 -73.519 
 -0.119   0.530 -68.066 
  4.015   8.391 -70.019 
 -8.079   4.873 -72.860 
 -5.331   8.406 -70.375 
  5.238 -12.848 -66.648 
 10.683  -0.635 -66.691 
 -2.018  -0.478 -71.814 
 -5.794  12.073 -73.106 
 12.484   8.052 -70.351 
 -7.380  -4.649 -71.820 
  3.949   8.256 -67.849 
  2.374  -3.633 -72.192 
  0.492  -2.484 -69.465 
 -6.727   2.879 -66.442 
  0.053  11.435 -71.481 
 14.600   9.314 -71.368 
 -8.595   4.858 -69.081 
 -6.301   4.777 -65.882 
 -0.373 -11.074 -69.077 
 -0.058   0.382 -69.856 
 -6.035   8.608 -68.764 
  1.164  -3.285 -70.519 
  2.015   3.171 -65.231 
-10.919   9.689 -68.173 
  5.377  -0.290 -68.144 
  5.396   3.885 -69.506 
  6.877   1.841 -67.762 
  7.206  -8.186 -70.928 
  4.712   8.813 -76.239 
  3.453  -4.314 -73.281 
 -0.243  -4.511 -69.127 
 -5.226   1.902 -63.007 
  2.354  -3.131 -64.164 
 10.521   9.381 -69.126 
  4.059   6.588 -67.659 
 -9.980  11.397 -72.903 
  4.306  -6.808 -69.618 
 -1.631 -11.550 -68.409 
-12.825  10.672 -71.633 
 -5.329   9.006 -72.726 
  4.563   5.354 -68.719 
  7.813 -12.797 -69.428 
 -6.132   4.106 -74.667 
 -5.255   0.015 -73.749 
  0.421  -5.581 -69.008 
  1.361  -6.574 -64.040 
 -3.630  -2.665 -70.947 
 14.483  -3.582 -69.922 
 -6.494  -9.723 -68.909 
 -9.675  -4.528 -64.278 
 13.668   3.836 -69.536 
 -8.925  11.759 -66.905 
  1.465  -8.034 -70.100 
  4.458   7.920 -74.367 
 -6.450  -6.357 -62.624 
  6.476  -0.730 -68.604 
  9.928  12.027 -70.047 
  3.060 -10.618 -71.487 
 -1.266 -10.247 -70.857 
 -8.421   6.626 -67.694 
  5.647   4.999 -69.038 
-13.070  -4.089 -73.989 
 -5.012  -5.386 -69.731 
 12.005  11.683 -73.870 
-10.401  -5.658 -67.407 
-11.544   8.576 -66.579 
 -4.220   0.920 -63.414 
  1.679   6.654 -67.726 
  4.260   9.128 -62.797 
  0.457   8.531 -76.237 
  0.144  -4.415 -63.929 
  1.442  11.297 -71.856 
-11.818  10.239 -63.606 
  8.224  -1.022 -66.109 
 -1.262  -1.670 -68.153 
  7.108  -3.963 -68.148 
  8.131   2.564 -62.194 
  3.545  -3.734 -77.562 
-11.896  11.416 -67.758 
 13.820   6.955 -68.649 
 -2.736   3.748 -61.037 
  4.069   0.397 -72.421 
  2.789   3.896 -65.835 
  3.447  11.298 -67.193 
  0.816   2.419 -62.106 
 11.826  10.089 -65.685 
-13.728  -8.408 -66.917 
-10.760  -2.627 -63.810 
 14.887 -13.008 -71.180 
-11.227   9.666 -73.327 
 10.866  -5.838 -69.085 
 12.974 -12.396 -72.853 
 14.214   5.511 -69.896 
 -9.006   4.833 -63.216 
  2.276  -5.909 -70.099 
  4.537   4.916 -64.809 
  0.000   9.841 -72.739 
 11.862   3.298 -69.740 
 -4.863   4.887 -64.252 
  6.072  -6.934 -69.203 
 -9.110  -6.053 -65.020 
 14.654   3.121 -70.377 
 -4.821   1.691 -66.338 
 -5.623 -11.776 -69.579 
  7.713   9.445 -62.398 
 -8.655   3.333 -62.008 
  7.048  -9.283 -61.634 
  1.481   8.901 -69.786 
  5.919  -7.590 -67.897 
-12.649   2.444 -69.304 
  2.433  -0.283 -64.311 
  5.835   5.593 -63.192 
 -8.798  -9.394 -66.459 
 12.955  -1.132 -71.957 
-13.126   8.104 -75.571 
 -4.527  -9.235 -61.052 
  5.630   8.171 -65.718 
-14.000 -11.287 -68.431 
  4.495   0.875 -64.901 
 -3.046 -10.472 -67.880 
-13.603   8.274 -67.794 
  4.938   7.701 -64.870 
 -6.768   8.902 -75.227 
-14.655  10.596 -69.348 
  5.757  -8.945 -75.361 
 -4.918   0.524 -63.048 
 13.476  -0.469 -72.109 
 -9.909   0.336 -75.204 
 12.181   9.636 -70.424 
  9.956   9.654 -71.229 
 -0.081   2.964 -72.760 
-10.910  -6.425 -73.155 
  8.414  10.500 -69.535 
 16.243   2.250 -67.872 
  4.771  -9.991 -65.706 
  3.954  -8.993 -63.636 
 -6.013   4.660 -65.618 
 -7.319  -2.590 -61.625 
 -1.324  -9.316 -67.939 
 -7.751 -10.384 -65.678 
-14.241  -8.386 -75.564 
 14.357  -2.048 -72.294 
 -1.949 -10.467 -70.050 
  8.311  -2.846 -69.544 
  2.939  10.089 -71.615 
  5.670   6.771 -73.384 
  0.497   1.049 -60.712 
-11.332  11.239 -65.522 
 -5.877 -10.099 -68.518 
 12.349   3.290 -68.042 
  2.486   7.713 -77.257 
  1.748   5.560 -75.810 
  7.021   7.278 -64.081 
  9.252   7.314 -62.569 
 11.127 -10.440 -68.623 
-10.224  11.066 -70.344 
  1.860   6.067 -74.426 
 11.047   3.962 -66.432 
 -2.236  11.070 -71.635 
 -7.760  -3.569 -75.014 
  0.812  10.081 -74.190 
  1.539   5.910 -69.014 
 10.637   0.731 -67.951 
 14.727   0.936 -69.486 
  2.915 -12.962 -66.734 
 -8.773  -1.607 -75.711 
-10.111  12.325 -64.523 
 -7.608  -5.158 -74.350 
 -2.591   2.399 -60.612 
  9.148   7.941 -70.348 
 -2.918  -3.295 -72.183 
 15.554   3.486 -69.602 
 -6.768  -0.775 -63.901 
 16.403  -4.405 -71.490 
  5.374  10.995 -65.207 
 15.585   3.242 -66.703 
 -1.196  10.294 -70.192 
 -9.165  11.180 -69.262 
  7.348  -4.290 -69.532 
 17.787   6.418 -70.306 
 10.198   7.069 -63.302 
 -5.186  -6.815 -70.827 
 10.466 -10.894 -72.395 
-11.646   8.020 -60.993 
-11.322   7.184 -69.432 
  1.787   8.778 -75.107 
 -4.260 -10.273 -68.831 
  4.482   2.258 -65.203 
  7.901   7.349 -65.388 
 15.642   6.673 -70.215 
  2.848   9.003 -65.492 
  6.748   3.909 -70.416 
  5.569   4.835 -67.520 
 11.730  -5.446 -67.984 
 10.846   3.578 -73.189 
  4.277  10.898 -65.159 
  9.703  -6.428 -71.948 
 12.429   0.080 -73.192 
 13.198   3.732 -64.477 
 -9.980  -8.110 -67.196 
  6.644   5.121 -72.549 
 -0.825   0.255 -62.136 
  2.667  -7.311 -71.918 
 12.354  -7.107 -70.941 
 -3.102   3.031 -75.710 
  5.476   1.866 -72.502 
  4.615  -4.146 -65.016 
 12.710  -1.894 -67.242 
-13.108   2.335 -71.041 
 14.487  -7.527 -69.832 
  6.225  -1.870 -69.674 
 10.019 -11.891 -72.612 
 13.479  11.815 -70.900 
  0.946  -6.136 -64.502 
 14.826   7.980 -66.778 
  7.845  -0.860 -67.738 
 -2.531  -7.537 -73.247 
  8.291   3.734 -61.928 
  1.684  11.186 -60.259 
  2.117 -10.122 -65.880 
 11.450 -11.628 -72.081 
  0.821   6.059 -67.556 
  1.368   6.591 -73.954 
 13.683   9.462 -68.529 
-10.140  -4.668 -71.310 
  4.530  -1.109 -66.386 
  8.858 -12.410 -69.799 
 -0.562  -8.305 -74.666 
 -1.710  -7.256 -72.856 
  8.104 -12.350 -69.779 
 -1.812  -8.515 -68.347 
  7.051   4.883 -63.104 
-10.418  -5.275 -70.070 
 16.022   3.976 -67.459 
-12.401   0.205 -69.764 
  5.730  -7.532 -69.662 
  5.636  -5.323 -69.548 
 -6.197   6.922 -77.234 
 -7.471   3.262 -66.700 
 -2.117   5.909 -74.096 
 -0.335  -1.194 -73.379 
-12.723   1.930 -76.739 
 -2.881   9.259 -61.459 
-10.281  -2.760 -63.895 
  7.057  10.497 -69.665 
 15.191 -11.595 -65.454 
 12.569   1.515 -63.175 
 12.047   6.829 -66.769 
 -6.447   1.034 -73.828 
 12.789   9.941 -63.778 
 -2.646   1.872 -73.652 
  7.298   3.160 -67.710 
 -1.599   3.099 -69.117 
  4.720  -0.533 -70.996 
 15.980   7.467 -69.435 
 -5.862  -0.696 -71.486 
  4.264   6.221 -71.025 
  2.235  -9.000 -65.249 
 -4.670   4.617 -69.282 
  4.143  -4.976 -72.515 
  7.781   7.907 -72.177 
  2.868  -6.876 -66.299 
  7.574  -5.674 -74.815 
 -3.970 -11.704 -65.831 
 -1.766   6.044 -63.176 
 -2.373   1.759 -64.522 
  9.837   5.915 -77.317 
  2.107  -1.195 -67.604 
 -2.040   6.205 -69.399 
-10.311  -8.922 -66.763 
 16.512 -10.720 -69.222 
  0.592   9.965 -66.205 
  4.440  -2.534 -63.007 
 -1.389   7.033 -63.648 
  3.204  -2.473 -70.345 
  4.984   9.988 -65.773 
 13.220  -4.000 -73.500 
 12.343   0.030 -70.716 
 -5.354  -2.636 -61.108 
 -5.019   3.050 -74.404 
  6.050   7.193 -66.930 
-10.712  -0.687 -66.589 
  3.684 -10.631 -77.537 
  7.082 -11.310 -72.071 
 -8.891   7.281 -72.176 
 -8.018   5.665 -69.217 
 -6.328   0.780 -71.436 
  3.205  -9.461 -62.712 
  6.051  -9.399 -71.094 
 -5.447   3.261 -61.157 
 -6.489  -3.382 -60.583 
 -8.675  -0.063 -75.159 
  5.817   2.814 -74.331 
 -5.026   0.885 -63.032 
  0.315   5.495 -64.840 
 -3.339   0.623 -66.876 
  1.126   0.424 -61.369 
-10.997  -8.736 -64.965 
 -8.118  -6.715 -70.726 
  4.074 -10.169 -72.544 
  8.119 -10.560 -63.025 
 -3.269  12.396 -66.160 
  0.922  -2.668 -72.663 
 -2.612 -10.073 -62.665 
 -1.554  -3.234 -58.510 
 -4.732  -2.596 -68.043 
 -2.753   0.972 -66.587 
 10.809 -10.093 -65.058 
 15.305  11.392 -67.152 
  3.336  -3.358 -68.469 
 -0.785  11.011 -70.803 
 16.249   7.486 -70.023 
  2.982  -6.671 -69.653 
 -8.622  12.736 -61.667 
 -2.518   6.199 -57.153 
 -9.350   7.548 -78.230 
 14.590  -4.220 -66.942 
  4.593   7.181 -73.299 
 -5.104 -10.966 -69.199 
 -2.579   1.775 -60.282 
 -9.243   8.979 -66.778 
  1.351   6.159 -65.507 
 14.485   7.226 -73.220 
 13.095 -12.189 -69.928 
 -8.954   5.774 -74.190 
  1.466  -0.166 -60.512 
-11.133   8.970 -61.653 
  4.954  -6.775 -64.191 
 17.758 -10.120 -70.125 
  5.498   7.601 -62.641 
  0.226   8.119 -60.573 
-10.845   7.053 -70.629 
 -8.129  -5.453 -63.941 
-13.506   9.992 -73.751 
-11.297  -4.241 -60.356 
 12.517 -12.529 -64.477 
 -8.537   9.870 -71.596 
 -4.531   9.802 -65.671 
 -7.063  11.240 -74.789 
 -8.621  -3.194 -63.130 
 -8.912   6.924 -63.049 
  9.975   8.779 -60.205 
 -5.902   8.446 -71.933 
 13.086  -9.960 -70.675 
 10.378  -4.210 -68.950 
 10.615  -1.342 -60.192 
 -8.710  -7.213 -65.153 
 -2.140  -0.947 -60.162 
 16.338  -7.672 -67.975 
 -9.273   2.295 -77.945 
-12.900   5.390 -74.736 
-12.295   4.982 -76.881 
  8.669  -8.422 -67.714 
-10.140 -10.887 -72.057 
 -6.031  -8.250 -67.307 
-13.739   8.128 -72.425 
  0.888   6.444 -69.779 
 -6.324 -10.706 -75.629 
 17.004  -4.664 -65.348 
 10.212  -1.039 -67.867 
  2.893  -9.462 -66.653 
 -1.927  -1.869 -72.067 
-12.047  -3.535 -73.407 
  7.033  11.131 -66.172 
 -5.066  -6.470 -67.118 
  2.569  -3.356 -73.093 
  8.029 -10.403 -69.706 
  4.178   5.941 -61.819 
-14.849   2.665 -67.749 
 17.395  -6.466 -72.307 
  8.724  11.157 -69.374 
 -5.051  -1.047 -74.210 
-12.160   9.194 -71.719 
  4.758   0.969 -62.118 
 13.344  -2.993 -64.160 
  2.461   1.327 -68.403 
-10.804   0.974 -72.879 
-11.732   2.407 -62.943 
 14.186   0.106 -64.355 
-15.283   4.104 -75.654 
 -2.690  -4.865 -71.083 
 10.689 -13.098 -64.727 
 -8.453  -6.890 -63.029 
 13.156   9.689 -64.406 
 -4.710  -9.111 -68.394 
 -4.684   3.580 -68.279 
 12.057   4.261 -75.915 
 14.007 -12.313 -65.482 
-15.200  -7.611 -68.070 
 12.520   4.167 -60.857 
  5.836  -2.277 -62.251 
 11.064  -3.864 -62.468 
  4.470  -1.631 -61.162 
  6.246  -3.519 -70.996 
 -7.885  -7.245 -75.107 
 -5.348  12.518 -59.982 
 10.949  -9.216 -69.221 
 16.621  -4.934 -64.517 
 12.657  -5.386 -64.743 
 17.388  -0.112 -68.465 
 -1.067 -10.683 -68.537 
 12.525  -0.181 -61.329 
 15.889   9.123 -69.252 
 15.680  -6.934 -65.421 
 -7.910  11.390 -64.529 
 -5.312   8.992 -59.301 
 14.728  -4.741 -63.815 
 -1.766  10.870 -62.493 
 -0.174   2.193 -64.716 
 -7.719  13.229 -64.569 
 -5.846  10.770 -63.183 
  1.148  11.506 -75.896 
 -6.898   2.649 -71.021 
 10.236   2.135 -67.557 
 -2.193  -7.387 -65.820 
 -7.421  -9.184 -73.517 
 14.529  -8.537 -69.909 
  2.242  -8.177 -68.755 
 -8.467 -11.600 -74.811 
 12.831  -5.432 -76.688 
 -8.747  -7.343 -69.696 
 16.278   1.892 -72.833 
  6.236  12.761 -64.267 
  6.716  -6.872 -76.276 
 -3.241  10.322 -72.975 
 13.817  -2.255 -72.183 
 11.017  -4.812 -73.663 
 -8.603   5.104 -62.276 
  9.960  -1.223 -67.679 

 VERTICES 472 944 
1 0 
1 1 
1 2 
1 3 
1 4 
1 5 
1 6 
1 7 
1 8 
1 9 
1 10 
1 11 
1 12 
1 13 
1 14 
1 15 
1 16 
1 17 
1 18 
1 19 
1 20 
1 21 
1 22 
1 23 
1 24 
1 25 
1 26 
1 27 
1 28 
1 29 
1 30 
1 31 
1 32 
1 33 
1 34 
1 35 
1 36 
1 37 
1 38 
1 39 
1 40 
1 41 
1 42 
1 43 
1 44 
1 45 
1 46 
1 47 
1 48 
1 49 
1 50 
1 51 
1 52 
1 53 
1 54 
1 55 
1 56 
1 57 
1 58 
1 59 
1 60 
1 61 
1 62 
1 63 
1 64 
1 65 
1 66 
1 67 
1 68 
1 69 
1 70 
1 71 
1 72 
1 73 
1 74 
1 75 
1 76 
1 77 
1 78 
1 79 
1 80 
1 81 
1 82 
1 83 
1 84 
1 85 
1 86 
1 87 
1 88 
1 89 
1 90 
1 91 
1 92 
1 93 
1 94 
1 95 
1 96 
1 97 
1 98 
1 99 
1 100 
1 101 
1 102 
1 103 
1 104 
1 105 
1 106 
1 107 
1 108 
1 109 
1 110 
1 111 
1 112 
1 113 
1 114 
1 115 
1 116 
1 117 
1 118 
1 119 
1 120 
1 121 
1 122 
1 123 
1 124 
1 125 
1 126 
1 127 
1 128 
1 129 
1 130 
1 131 
1 132 
1 133 
1 134 
1 135 
1 136 
1 137 
1 138 
1 139 
1 140 
1 141 
1 142 
1 143 
1 144 
1 145 
1 146 
1 147 
1 148 
1 149 
1 150 
1 151 
1 152 
1 153 
1 154 
1 155 
1 156 
1 157 
1 158 
1 159 
1 160 
1 161 
1 162 
1 163 
1 164 
1 165 
1 166 
1 167 
1 168 
1 169 
1 170 
1 171 
1 172 
1 173 
1 174 
1 175 
1 176 
1 177 
1 178 
1 179 
1 180 
1 181 
1 182 
1 183 
1 184 
1 185 
1 186 
1 187 
1 188 
1 189 
1 190 
1 191 
1 192 
1 193 
1 194 
1 195 
1 196 
1 197 
1 198 
1 199 
1 200 
1 201 
1 202 
1 203 
1 204 
1 205 
1 206 
1 207 
1 208 
1 209 
1 210 
1 211 
1 212 
1 213 
1 214 
1 215 
1 216 
1 217 
1 218 
1 219 
1 220 
1 221 
1 222 
1 223 
1 224 
1 225 
1 226 
1 227 
1 228 
1 229 
1 230 
1 231 
1 232 
1 233 
1 234 
1 235 
1 236 
1 237 
1 238 
1 239 
1 240 
1 241 
1 242 
1 243 
1 244 
1 245 
1 246 
1 247 
1 248 
1 249 
1 250 
1 251 
1 252 
1 253 
1 254 
1 255 
1 256 
1 257 
1 258 
1 259 
1 260 
1 261 
1 262 
1 263 
1 264 
1 265 
1 266 
1 267 
1 268 
1 269 
1 270 
1 271 
1 272 
1 273 
1 274 
1 275 
1 276 
1 277 
1 278 
1 279 
1 280 
1 281 
1 282 
1 283 
1 284 
1 285 
1 286 
1 287 
1 288 
1 289 
1 290 
1 291 
1 292 
1 293 
1 294 
1 295 
1 296 
1 297 
1 298 
1 299 
1 300 
1 301 
1 302 
1 303 
1 304 
1 305 
1 306 
1 307 
1 308 
1 309 
1 310 
1 311 
1 312 
1 313 
1 314 
1 315 
1 316 
1 317 
1 318 
1 319 
1 320 
1 321 
1 322 
1 323 
1 324 
1 325 
1 326 
1 327 
1 328 
1 329 
1 330 
1 331 
1 332 
1 333 
1 334 
1 335 
1 336 
1 337 
1 338 
1 339 
1 340 
1 341 
1 342 
1 343 
1 344 
1 345 
1 346 
1 347 
1 348 
1 349 
1 350 
1 351 
1 352 
1 353 
1 354 
1 355 
1 356 
1 357 
1 358 
1 359 
1 360 
1 361 
1 362 
1 363 
1 364 
1 365 
1 366 
1 367 
1 368 
1 369 
1 370 
1 371 
1 372 
1 373 
1 374 
1 375 
1 376 
1 377 
1 378 
1 379 
1 380 
1 381 
1 382 
1 383 
1 384 
1 385 
1 386 
1 387 
1 388 
1 389 
1 390 
1 391 
1 392 
1 393 
1 394 
1 395 
1 396 
1 397 
1 398 
1 399 
1 400 
1 401 
1 402 
1 403 
1 404 
1 405 
1 406 
1 407 
1 408 
1 409 
1 410 
1 411 
1 412 
1 413 
1 414 
1 415 
1 416 
1 417 
1 418 
1 419 
1 420 
1 421 
1 422 
1 423 
1 424 
1 425 
1 426 
1 427 
1 428 
1 429 
1 430 
1 431 
1 432 
1 433 
1 434 
1 435 
1 436 
1 437 
1 438 
1 439 
1 440 
1 441 
1 442 
1 443 
1 444 
1 445 
1 446 
1 447 
1 448 
1 449 
1 450 
1 451 
1 452 
1 453 
1 454 
1 455 
1 456 
1 457 
1 458 
1 459 
1 460 
1 461 
1 462 
1 463 
1 464 
1 465 
1 466 
1 467 
1 468 
1 469 
1 470 
1 471 
POINT_DATA 472 
SCALARS MeanU double 1 
LOOKUP_TABLE default
0.19616 
0.10281 
0.20229 
0.14701 
0.13771 
0.05523 
0.17702 
0.13212 
0.09398 
0.14733 
0.22987 
0.19082 
0.15789 
0.14977 
0.16965 
0.07885 
0.14231 
0.17631 
0.18728 
0.07224 
0.08302 
0.14717 
0.22582 
0.08138 
0.17317 
0.13433 
0.07393 
0.12917 
0.14701 
0.15158 
0.23013 
0.09823 
0.10792 
0.19512 
0.24070 
0.16128 
0.11403 
0.12777 
0.07303 
0.09025 
0.09056 
0.09951 
0.18170 
0.20990 
0.04920 
0.20988 
0.18225 
0.12184 
0.30828 
0.19237 
0.16826 
0.14374 
0.13861 
0.07932 
0.17715 
0.25644 
0.19961 
0.14869 
0.11277 
0.12507 
0.22969 
0.11611 
0.36749 
0.12005 
0.20981 
0.13942 
0.12948 
0.11580 
0.19763 
0.13237 
0.10898 
0.10922 
0.21038 
0.29265 
0.16782 
0.25147 
0.07795 
0.09259 
0.11401 
0.15560 
0.18439 
0.19105 
0.24591 
0.14915 
0.08392 
0.19375 
0.21255 
0.26030 
0.24016 
0.25140 
0.23543 
0.14226 
0.14818 
0.11504 
0.08669 
0.25889 
0.08927 
0.29486 
0.13493 
0.14407 
0.10733 
0.08233 
0.09513 
0.20218 
0.16212 
0.25707 
0.21387 
0.11120 
0.13547 
0.20090 
0.08138 
0.10093 
0.02873 
0.20273 
0.19420 
0.08841 
0.25707 
0.26050 
0.32626 
0.18114 
0.14486 
0.09769 
0.10507 
0.16881 
0.18625 
0.12796 
0.08059 
0.12767 
0.06541 
0.19775 
0.15180 
0.06478 
0.19107 
0.23146 
0.09441 
0.21623 
0.14273 
0.14423 
0.10605 
0.07936 
0.04675 
0.21199 
0.11013 
0.11148 
0.18542 
0.15646 
0.13506 
0.14623 
0.14514 
0.12518 
0.05876 
0.18776 
0.12152 
0.15750 
0.08273 
0.17624 
0.21325 
0.29793 
0.19146 
0.16420 
0.10585 
0.09087 
0.12792 
0.10724 
0.14479 
0.19950 
0.27427 
0.11889 
0.15095 
0.16862 
0.11953 
0.11368 
0.11501 
0.20576 
0.17075 
0.09339 
0.16595 
0.06968 
0.07900 
0.23173 
0.23197 
0.28653 
0.14777 
0.19695 
0.16324 
0.12311 
0.26168 
0.05484 
0.19519 
0.03684 
0.08072 
0.19127 
0.04862 
0.19011 
0.19678 
0.09598 
0.06069 
0.08820 
0.08907 
0.22473 
0.11273 
0.12953 
0.07997 
0.09652 
0.12072 
0.23566 
0.16485 
0.07725 
0.19254 
0.08651 
0.08819 
0.11023 
0.11785 
0.20166 
0.22607 
0.14639 
0.17105 
0.08502 
0.10848 
0.10569 
0.10866 
0.24438 
0.27822 
0.07027 
0.11887 
0.06535 
0.20090 
0.11114 
0.19823 
0.13177 
0.11240 
0.04369 
0.16919 
0.08050 
0.21946 
0.24001 
0.23825 
0.20437 
0.04901 
0.24278 
0.21951 
0.10236 
0.11429 
0.27754 
0.21016 
0.14267 
0.06480 
0.18825 
0.17016 
0.29296 
0.27557 
0.16678 
0.06229 
0.08373 
0.10919 
0.14716 
0.15157 
0.15262 
0.20924 
0.18186 
0.06098 
0.12514 
0.20889 
0.11338 
0.12517 
0.17130 
0.12448 
0.08882 
0.13496 
0.08842 
0.11258 
0.15763 
0.11059 
0.17943 
0.05053 
0.17338 
0.12334 
0.16989 
0.16753 
0.14168 
0.21074 
0.18735 
0.20465 
0.14025 
0.19571 
0.17784 
0.17805 
0.09813 
0.13280 
0.13923 
0.16542 
0.17669 
0.07374 
0.16941 
0.11608 
0.12741 
0.27456 
0.23158 
0.22346 
0.19278 
0.11167 
0.15939 
0.15280 
0.10527 
0.08212 
0.17898 
0.20124 
0.09586 
0.22420 
0.19153 
0.26792 
0.18279 
0.19125 
0.05927 
0.10773 
0.21832 
0.10105 
0.19080 
0.05166 
0.24391 
0.23682 
0.22662 
0.16407 
0.21956 
0.19657 
0.09415 
0.11724 
0.11885 
0.14686 
0.15105 
0.09314 
0.13429 
0.27265 
0.20749 
0.10929 
0.17698 
0.17926 
0.18644 
0.21732 
0.07693 
0.18130 
0.17977 
0.08691 
0.04946 
0.20456 
0.25753 
0.08242 
0.20331 
0.29611 
0.21019 
0.16158 
0.12838 
0.19381 
0.09544 
0.18917 
0.27136 
0.11131 
0.09400 
0.14367 
0.18635 
0.12076 
0.08796 
0.11475 
0.06203 
0.14072 
0.18801 
0.09491 
0.16942 
0.09070 
0.13379 
0.14033 
0.09504 
0.04208 
0.20306 
0.14248 
0.20074 
0.20575 
0.11109 
0.08631 
0.09817 
0.10934 
0.17541 
0.14799 
0.13507 
0.08321 
0.18596 
0.04902 
0.23758 
0.23516 
0.11397 
0.19792 
0.12093 
0.14139 
0.16218 
0.10128 
0.15829 
0.19685 
0.16272 
0.18714 
0.15590 
0.09853 
0.11236 
0.21634 
0.21072 
0.16948 
0.23879 
0.10154 
0.28216 
0.25866 
0.05436 
0.16056 
0.14308 
0.15433 
0.14238 
0.27531 
0.19858 
0.17473 
0.26531 
0.26807 
0.14923 
0.15137 
0.04924 
0.16285 
0.07956 
0.07060 
0.18806 
0.07109 
0.13690 
0.15781 
0.26832 
0.05657 
0.12753 
0.04794 
0.27553 
0.26684 
0.22333 
0.26577 
0.12757 
0.14178 
0.18310 
0.07042 
0.11720 
0.15731 
0.01693 
0.25855 
0.17040 
0.04011 
0.15219 
0.13567 
0.12710 
0.05996 
0.14178 
0.12363 
0.09109 
0.18451 
0.18359 
0.12632 
0.22971 
0.11159 
0.08557 
0.18642 
0.12860 
0.13165 
0.23664 
0.20640 
0.13205 
0.13181 
0.24634 
0.23179 
0.22415 
0.15935 
0.28469 

 VECTORS Umean float 
-0.00050 0.17050 -0.09700 
-0.06000 0.02700 -0.07900 
0.06250 0.16250 -0.10300 
0.09800 0.10100 0.04250 
-0.03650 0.04750 -0.12400 
0.01500 0.05300 -0.00400 
0.02750 0.09700 -0.14550 
0.09350 0.07850 -0.05050 
0.00800 0.03200 -0.08800 
0.11200 0.06250 -0.07250 
0.09300 0.09100 -0.18950 
-0.00450 0.11050 -0.15550 
0.07750 0.06900 -0.11900 
0.03200 0.08650 -0.11800 
0.14250 0.07150 -0.05800 
-0.01500 -0.00800 -0.07700 
-0.07250 0.03450 -0.11750 
0.06550 0.05950 -0.15250 
0.04600 0.01400 -0.18100 
0.00300 -0.01300 -0.07100 
0.02000 0.06750 -0.04400 
0.05700 0.04500 -0.12800 
0.07400 0.02400 -0.21200 
0.03850 0.03600 -0.06200 
0.09450 0.08850 -0.11500 
0.08300 0.10000 0.03400 
0.04650 0.05350 0.02100 
0.00850 -0.01000 -0.12850 
0.08050 0.03300 -0.11850 
0.09000 0.09500 -0.07650 
0.06050 0.04700 -0.21700 
0.03450 -0.06300 -0.06700 
0.08150 -0.04050 -0.05800 
-0.13950 -0.05900 0.12300 
0.13400 -0.03700 -0.19650 
-0.07950 -0.08650 0.11050 
0.09200 0.06150 -0.02750 
0.03750 0.01250 -0.12150 
-0.00400 -0.04900 -0.05400 
-0.07300 0.05300 -0.00250 
0.03400 0.01250 -0.08300 
0.07100 0.06850 -0.01300 
0.07900 0.09600 -0.13250 
0.14050 0.02750 -0.15350 
-0.01550 -0.04600 -0.00800 
0.08100 0.15650 -0.11400 
-0.05050 0.11450 -0.13250 
0.09800 0.06000 0.04050 
0.04200 0.04200 -0.30250 
0.03500 0.16500 -0.09250 
-0.11000 0.10700 -0.06900 
0.04100 0.10600 -0.08800 
0.07100 0.11700 -0.02200 
-0.02300 -0.02250 -0.07250 
0.03850 0.10550 -0.13700 
0.09550 0.07150 -0.22700 
0.15600 0.12400 -0.01150 
-0.14750 0.01250 -0.01400 
0.05400 -0.00000 -0.09900 
0.09400 0.05500 -0.06150 
0.15250 0.16750 0.03800 
0.08050 0.08000 0.02450 
0.08550 0.20250 -0.29450 
-0.09600 0.04600 -0.05550 
0.09350 0.08400 -0.16800 
-0.00100 -0.01600 -0.13850 
-0.03050 0.07300 -0.10250 
0.04450 0.06800 -0.08250 
0.05600 0.10000 -0.16100 
-0.02250 -0.04200 -0.12350 
0.08550 0.03550 -0.05750 
0.09200 -0.01000 -0.05800 
0.11550 0.09650 -0.14700 
0.14400 0.03750 -0.25200 
0.04900 0.12750 -0.09750 
-0.03050 -0.06500 -0.24100 
0.02450 -0.02250 -0.07050 
0.06450 -0.02250 -0.06250 
-0.03950 0.05100 -0.09400 
0.10050 -0.05650 -0.10450 
0.02550 -0.05700 -0.17350 
0.06300 0.10450 -0.14700 
0.04100 0.19050 -0.15000 
0.10700 0.01700 -0.10250 
0.05950 0.05750 0.01400 
0.06900 0.15350 -0.09600 
-0.01250 0.10300 -0.18550 
0.14300 0.03600 -0.21450 
-0.04050 0.05800 -0.22950 
0.09450 0.04000 -0.22950 
0.11450 0.04600 -0.20050 
0.11250 0.06450 -0.05850 
0.10800 0.05050 -0.08800 
-0.00150 0.09050 -0.07100 
-0.01550 0.06300 -0.05750 
0.16850 0.00450 -0.19650 
0.04700 -0.01450 -0.07450 
-0.04950 0.07050 -0.28200 
0.08550 0.00900 -0.10400 
-0.07850 -0.12050 0.00850 
0.09900 0.03450 -0.02300 
0.04250 0.07050 -0.00150 
-0.00850 0.06700 -0.06700 
0.04200 0.09850 -0.17150 
0.11450 0.10100 0.05450 
0.17550 0.17850 -0.05850 
0.06350 0.00950 -0.20400 
0.08200 0.07500 -0.00400 
0.01700 0.13250 0.02250 
0.12750 0.15500 -0.00900 
0.00900 0.01950 -0.07850 
0.09500 0.03150 0.01300 
-0.00100 0.02350 -0.01650 
0.04400 -0.02350 -0.19650 
-0.18450 -0.05450 -0.02650 
0.01300 0.05850 0.06500 
0.11850 0.04050 -0.22450 
0.12900 0.14650 -0.17250 
0.08850 -0.00450 -0.31400 
-0.08100 0.04000 -0.15700 
0.07400 0.06850 -0.10400 
0.03750 0.06950 -0.05750 
0.04050 0.08150 -0.05250 
0.10150 0.13400 0.01550 
0.10150 0.11650 -0.10400 
0.03750 0.05250 -0.11050 
-0.07400 -0.01700 -0.02700 
0.03450 -0.10700 0.06050 
0.01950 0.03300 -0.05300 
0.02400 0.07100 -0.18300 
0.03000 0.13050 -0.07150 
0.04350 -0.01800 -0.04450 
0.00700 0.11150 -0.15500 
0.12850 0.00250 -0.19250 
0.03850 -0.02950 -0.08100 
0.06150 0.12550 -0.16500 
0.11300 0.07000 0.05200 
0.05100 0.06450 -0.11850 
0.03450 0.04900 -0.08750 
-0.00600 0.07850 0.01000 
0.00900 -0.01300 -0.04400 
0.16900 0.12000 -0.04450 
0.10150 0.04250 -0.00450 
0.05750 0.05650 -0.07700 
-0.08050 0.16300 -0.03650 
0.14400 0.04400 -0.04250 
0.05600 0.09200 0.08150 
0.10600 0.06250 0.07900 
0.11800 0.05900 0.06050 
-0.11050 0.01800 -0.05600 
-0.05400 -0.01250 -0.01950 
0.13400 0.10400 0.08050 
0.04400 0.10950 0.02900 
0.10850 -0.08900 -0.07150 
-0.03650 -0.06600 -0.03400 
0.03300 0.08100 -0.15300 
0.03300 0.07600 -0.19650 
0.01900 0.20000 -0.22000 
-0.12650 -0.00800 -0.14350 
0.10350 0.10750 -0.06850 
0.07150 0.00300 -0.07800 
0.07300 0.02850 -0.04600 
0.11850 0.03600 -0.03200 
0.03200 0.02400 -0.09950 
0.08900 0.08000 -0.08150 
0.02700 0.10000 -0.17050 
0.11750 0.20450 -0.14000 
0.07500 0.05300 -0.07550 
0.13250 0.06950 0.02000 
0.02000 0.11250 -0.12400 
0.02250 0.06150 -0.10000 
0.05600 0.04800 -0.08650 
0.07050 0.01250 -0.09000 
0.05200 0.06100 -0.18950 
0.10100 0.02700 -0.13500 
0.03400 -0.08300 -0.02600 
-0.08150 0.14450 0.00400 
0.02650 0.03100 0.05650 
-0.04600 0.03700 -0.05250 
0.16000 0.16700 0.01450 
0.00300 0.03000 -0.23000 
0.24400 0.08550 -0.12350 
-0.01550 0.01150 -0.14650 
0.06800 0.17500 -0.05950 
0.02150 0.07850 -0.14150 
0.06800 0.10250 0.00500 
0.12200 0.00050 -0.23150 
-0.01350 -0.05200 0.01100 
0.01750 0.04950 -0.18800 
-0.00350 -0.03250 0.01700 
0.07850 0.01200 -0.01450 
0.17350 0.08050 -0.00150 
-0.02850 0.03300 -0.02150 
0.01650 0.08550 -0.16900 
0.06400 0.07100 -0.17200 
0.09200 -0.02100 -0.01750 
-0.01900 0.04000 0.04150 
0.07850 0.01450 -0.03750 
-0.03150 0.03300 -0.07650 
0.11600 0.04350 -0.18750 
0.03700 0.10300 -0.02700 
-0.12250 0.01700 0.03850 
-0.04100 0.02950 -0.06200 
-0.03850 0.00950 -0.08800 
0.02100 0.00950 -0.11850 
0.10200 0.06100 -0.20350 
0.02450 0.15500 -0.05050 
0.06700 0.01350 0.03600 
0.05400 0.04600 -0.17900 
-0.00150 0.08450 0.01850 
0.05300 0.06000 -0.03700 
0.07850 0.06850 -0.03600 
0.08850 -0.03600 -0.06900 
0.05700 0.02350 -0.19200 
-0.09500 0.20150 -0.03850 
0.03650 0.11600 -0.08150 
0.05150 0.01900 -0.16200 
0.00050 0.00200 0.08500 
-0.04250 0.09250 -0.03750 
-0.08850 0.05300 0.02300 
-0.02450 0.03750 -0.09900 
0.10300 0.00700 -0.22150 
0.08900 0.19350 -0.17900 
0.02150 -0.03950 0.05400 
0.00200 0.11000 -0.04500 
0.03800 0.02750 -0.04550 
0.00550 0.06050 0.19150 
0.01000 0.09900 0.04950 
0.02000 0.08900 -0.17600 
0.11800 0.04550 0.03700 
0.08450 0.04550 -0.05850 
0.03300 -0.02000 -0.02050 
0.07200 0.14250 -0.05600 
0.01800 0.06750 0.04000 
0.12250 0.10250 -0.15050 
0.17450 0.09450 -0.13500 
0.11950 0.00700 -0.20600 
0.09100 0.03800 -0.17900 
-0.02150 0.03400 0.02800 
-0.01000 -0.03850 -0.23950 
0.03050 0.11250 -0.18600 
-0.09350 0.04150 -0.00350 
0.01950 0.06350 -0.09300 
0.10850 0.07400 -0.24450 
-0.06250 0.03250 -0.19800 
0.09050 0.09700 -0.05250 
0.05500 0.03150 -0.01350 
0.08650 0.15700 -0.05750 
0.10750 0.09500 -0.09150 
0.05000 0.07950 -0.27750 
-0.00500 0.06800 -0.26700 
0.01800 0.16550 -0.01000 
0.02500 -0.03750 -0.04300 
0.06200 0.00550 -0.05600 
0.06300 -0.02700 -0.08500 
0.11750 0.02500 -0.08500 
-0.07550 0.08100 -0.10350 
0.03400 0.07500 -0.12850 
0.11450 0.03300 -0.17200 
0.05300 0.07700 -0.15600 
-0.02650 0.03000 -0.04600 
0.08100 0.08750 0.03800 
0.16300 0.04400 0.12300 
0.05500 0.09050 -0.04050 
-0.03550 0.00250 -0.12000 
0.02500 0.01250 -0.16900 
0.01000 0.06450 -0.10600 
0.07350 0.03600 -0.03450 
0.08800 0.01300 -0.10150 
0.06850 0.04750 -0.02950 
0.06700 0.03600 -0.08300 
0.07000 0.07200 -0.12150 
0.09950 0.04800 -0.00500 
0.14850 0.06550 -0.07650 
0.00650 -0.01050 -0.04900 
0.14200 0.08600 -0.05000 
0.02350 0.11050 -0.04950 
0.03600 0.16450 0.02250 
0.12000 0.11600 -0.01450 
0.05700 -0.04800 -0.12050 
0.04300 0.12250 -0.16600 
0.14100 0.11600 0.04200 
0.05700 0.15450 -0.12150 
-0.03850 0.11950 -0.06250 
0.01000 0.12100 -0.15350 
0.11900 0.11050 -0.07250 
0.05600 0.12100 -0.11800 
0.02800 -0.06600 0.06700 
0.01250 -0.06250 -0.11650 
-0.01350 0.00450 -0.13850 
0.14850 0.03750 -0.06250 
-0.01150 0.08850 -0.15250 
-0.06700 0.01650 0.02600 
0.02700 0.09300 -0.13900 
-0.04650 0.08300 -0.06650 
0.00500 0.11750 -0.04900 
0.15600 0.11150 -0.19650 
0.10550 0.10050 -0.18000 
-0.03800 0.17700 -0.13100 
0.04300 0.03300 -0.18500 
-0.09000 0.06450 -0.01450 
0.10450 0.09250 -0.07700 
0.11050 0.08750 -0.05900 
0.10400 -0.00500 -0.01550 
-0.02000 0.01350 -0.07850 
0.05600 0.08450 -0.14750 
0.19650 0.02350 0.03650 
0.08850 0.03500 -0.01150 
0.15650 0.08450 -0.13650 
0.10250 0.06650 -0.14750 
0.13650 0.05450 -0.22400 
0.02000 0.09800 -0.15300 
0.07950 0.13350 -0.11150 
-0.00400 -0.05900 -0.00400 
-0.09350 -0.02150 0.04900 
0.05550 0.09900 -0.18650 
0.07400 0.04000 -0.05600 
0.09500 0.06300 -0.15300 
-0.03600 0.03700 -0.00200 
0.05050 -0.05150 -0.23300 
0.07900 0.07000 -0.21200 
0.01200 0.03550 -0.22350 
0.05100 0.13700 -0.07450 
0.11100 0.15800 -0.10450 
0.14700 0.13050 -0.00100 
0.08350 -0.01300 -0.04150 
0.10950 0.03850 -0.01650 
0.00600 0.07500 -0.09200 
0.09500 0.11200 -0.00000 
0.07650 0.11400 -0.06300 
-0.01050 -0.00300 0.09250 
0.07650 0.03400 -0.10500 
0.12250 0.09800 -0.22300 
0.02000 0.04300 -0.20200 
0.02850 0.09700 -0.04150 
0.08350 0.07650 -0.13600 
0.14800 0.08250 -0.05850 
0.01150 0.09750 -0.15850 
0.16300 0.05200 -0.13400 
0.04350 -0.04150 -0.04800 
-0.02550 -0.00050 -0.17950 
0.16400 0.07350 -0.00450 
0.07000 0.03050 -0.04150 
0.02250 0.01950 -0.03950 
-0.13650 0.07250 0.13400 
0.06250 0.11650 -0.22100 
0.06350 -0.01450 -0.05050 
0.01800 -0.00250 -0.20250 
0.20650 0.14550 -0.15450 
0.13900 0.05700 -0.14700 
0.15150 0.04900 0.02750 
0.11400 0.05900 -0.00200 
0.08300 0.01500 -0.17450 
-0.09250 0.02150 0.00950 
0.10550 0.11350 -0.10850 
0.15050 -0.02850 -0.22400 
0.02800 0.10750 0.00700 
-0.00050 0.07550 0.05600 
0.04300 0.05950 -0.12350 
0.04200 0.00450 -0.18150 
0.01900 0.02550 -0.11650 
0.06950 0.03500 -0.04100 
-0.02300 0.03450 -0.10700 
-0.02400 0.02150 -0.05300 
0.04050 0.02950 -0.13150 
0.07750 0.11550 -0.12650 
0.06050 -0.03150 -0.06600 
0.02150 0.13000 -0.10650 
-0.00900 -0.01500 -0.08900 
0.01150 0.07150 0.11250 
0.05350 0.05050 -0.11950 
-0.04950 -0.08000 -0.01350 
0.03800 -0.01750 -0.00450 
0.10650 0.17100 -0.02550 
0.04950 0.06800 -0.11500 
0.09600 0.09100 -0.15100 
0.06050 0.13500 -0.14300 
0.01550 0.01050 -0.10950 
0.04200 -0.06050 -0.04500 
-0.03500 0.02750 -0.08750 
-0.06150 0.05900 -0.06850 
-0.00450 0.15500 -0.08200 
0.04200 0.08450 -0.11400 
0.02600 0.13250 -0.00350 
-0.03300 0.02550 0.07200 
0.03350 0.14800 -0.10750 
0.04300 -0.00500 -0.02300 
0.13450 -0.01150 -0.19550 
0.10200 0.04750 -0.20650 
0.04200 0.03200 -0.10100 
0.07700 0.09100 -0.15800 
0.06000 -0.05150 -0.09150 
0.04850 0.07800 -0.10750 
0.06600 0.10550 -0.10400 
-0.02000 0.00750 -0.09900 
-0.00950 -0.00050 -0.15800 
0.16950 0.10000 0.00450 
0.11500 0.09100 -0.07050 
-0.02050 0.18250 -0.03600 
-0.01100 0.00150 -0.15550 
0.06000 0.00500 -0.07800 