# vtk DataFile Version 2.0 
Xm, Ym, Zm, Uvecs, timestep 10130 
ASCII 
 
DATASET POLYDATA POINTS 525 float 
 -4.306  -3.562 -71.388 
 -0.801   6.305 -70.951 
 -0.791  -0.294 -73.591 
  4.473   8.059 -69.302 
  6.942  -4.430 -68.513 
 -4.638   9.014 -73.922 
-10.322   8.848 -67.400 
 -3.236   3.537 -67.574 
-10.320  -1.997 -76.868 
-13.027  -0.251 -73.054 
  7.994   6.042 -67.174 
  0.734  -4.007 -70.165 
  1.686  12.021 -68.893 
 -8.127  -4.941 -71.380 
  4.595   7.233 -67.972 
  1.650  10.093 -67.307 
  4.716   4.330 -70.421 
-12.013   6.171 -71.659 
 -9.686   3.391 -74.541 
  2.926   2.794 -67.672 
 -6.369  -0.080 -73.571 
 -4.566   6.414 -63.779 
  4.119  11.701 -72.304 
  7.595  -7.444 -72.364 
 -4.843   6.607 -70.624 
 -5.415   0.122 -66.469 
  8.514  -1.296 -72.880 
  1.023  11.193 -69.269 
-12.230   0.982 -72.676 
 -0.829   7.825 -66.079 
  1.228  10.521 -74.660 
  1.497   5.613 -73.591 
  6.388  12.310 -69.173 
 -7.741  -3.832 -68.946 
  0.045  -9.268 -64.647 
 -1.684  12.873 -64.764 
-10.188  11.649 -70.084 
  3.518   6.564 -68.162 
-12.310  -3.952 -74.959 
 -1.569  -7.412 -69.292 
  6.872   8.662 -77.486 
 -1.169   6.994 -69.460 
 17.071   6.483 -72.749 
 -3.239  11.414 -66.652 
  7.783   4.446 -74.597 
 -3.428   0.719 -72.608 
 -8.640  10.939 -67.351 
  2.037  -8.950 -70.008 
-11.573   2.039 -70.118 
-13.653  -5.841 -73.060 
  1.575  11.541 -65.058 
  3.420   3.819 -69.983 
 -1.865   1.152 -65.478 
  2.712  -4.889 -67.018 
 -3.931  -6.638 -69.382 
 -2.173   2.902 -66.536 
 -9.271  -7.460 -69.873 
  5.654   8.523 -66.444 
-13.476  11.425 -71.685 
  9.962   4.136 -70.405 
  0.052   6.123 -69.730 
  5.664   9.076 -66.452 
 -7.946   3.925 -64.602 
  1.870   8.872 -72.532 
  8.704  -2.490 -70.677 
 -9.058  -6.258 -67.489 
  7.991   8.078 -67.238 
 11.467  -0.641 -68.144 
 -5.625   7.234 -65.702 
  5.457  10.326 -64.714 
  7.737 -10.118 -67.526 
 -8.181  12.624 -65.773 
  2.141  12.901 -68.134 
 -0.159   8.111 -71.171 
 11.051  -0.587 -64.600 
 -7.382  -7.107 -69.295 
 -0.822  -3.247 -66.400 
 -4.436 -10.227 -71.599 
 10.430   6.078 -68.501 
-12.829   2.889 -69.913 
 11.634  -2.470 -69.904 
 -0.501  12.799 -68.060 
  8.276  -9.882 -71.261 
 11.929  -3.247 -67.212 
  7.615   9.666 -65.061 
  4.027  -9.005 -67.276 
-11.522  -2.372 -70.578 
-12.072  -6.973 -69.460 
-14.432  -8.017 -72.871 
  0.547   8.049 -63.819 
  2.279   0.526 -69.286 
 -7.063   3.954 -65.649 
  5.420 -11.273 -69.770 
 11.438   6.199 -71.836 
  0.760  10.260 -67.729 
 -4.190   7.700 -62.111 
  9.143   7.739 -66.225 
  6.858  -7.066 -69.335 
 -1.083   2.507 -70.048 
-14.381  -1.125 -68.478 
  1.781  -1.234 -66.139 
  5.183   7.164 -66.288 
-10.836  -2.239 -66.279 
  3.225  -3.555 -67.653 
-10.733  -7.213 -61.561 
-13.077  11.352 -68.040 
 12.203  -1.783 -65.410 
-10.209   1.052 -75.560 
-15.833   9.391 -73.477 
  0.184  -9.560 -71.864 
  1.206 -11.467 -74.561 
  0.003  11.108 -68.493 
 -2.300   5.507 -69.690 
 -7.344   3.724 -75.538 
 -7.300   9.701 -64.301 
 -7.591   8.448 -68.972 
 -4.123  11.729 -59.402 
  0.653   2.419 -63.447 
 -6.774  -7.399 -68.533 
 -7.500   6.600 -63.983 
 -3.311  10.574 -61.028 
 -6.665  -6.029 -68.998 
 -9.245  -8.532 -68.202 
-12.496   5.175 -64.377 
  3.781   9.041 -64.840 
 12.195  -0.344 -73.158 
 -6.004  12.329 -67.969 
 10.177   5.900 -64.078 
  9.304  -2.574 -69.675 
 -6.482  -5.989 -67.332 
-11.482   5.114 -63.752 
  0.574  -4.613 -65.359 
 -4.207  -7.380 -76.651 
  4.029   0.121 -67.214 
 -7.210   0.769 -63.879 
  6.117   0.181 -76.234 
 -3.076  -7.768 -70.010 
 -3.154  -8.120 -69.314 
 -0.500   0.210 -69.268 
-10.430   7.772 -68.744 
-11.520  -8.660 -66.704 
-10.504  -1.127 -62.802 
  4.500   5.302 -66.631 
-14.599  -0.855 -73.029 
 -9.440  -1.833 -67.802 
  6.987   3.845 -62.512 
 -8.123  -1.556 -67.357 
  4.861  -8.701 -65.831 
 -1.989  -5.051 -72.707 
 -8.561   3.062 -66.671 
 -7.657  -6.295 -69.215 
 -4.365   0.531 -67.384 
 -7.730   6.182 -69.868 
  7.838   0.300 -60.840 
  7.470  -7.079 -69.285 
-10.685  -9.271 -69.522 
-13.382  10.110 -72.744 
-12.762  -5.955 -67.899 
 12.996  -0.842 -71.995 
 -1.970  -2.723 -67.222 
-10.743   2.023 -64.581 
  4.830   3.290 -65.666 
-11.445   8.180 -75.949 
  3.262   6.306 -62.606 
 -8.794   7.075 -64.900 
 14.160  -4.263 -73.605 
  3.902  -1.283 -68.225 
 12.551   8.952 -70.418 
 -8.897  -6.438 -70.855 
-12.814  -2.565 -66.918 
  0.240  -6.938 -69.999 
 -7.662   5.744 -76.458 
 10.137   2.091 -68.764 
  1.074   2.148 -65.894 
 -3.837   9.677 -61.262 
 10.179   6.841 -67.535 
  5.713 -12.493 -67.864 
 12.958   7.321 -71.016 
 15.166   6.684 -69.827 
-13.730  -5.681 -69.948 
 17.321   8.297 -69.504 
  0.018  -3.096 -70.159 
 11.096   3.869 -74.224 
 -4.133  -9.647 -68.112 
-11.855   6.302 -66.212 
 11.010  -6.614 -73.582 
  2.579  -2.590 -67.127 
  8.905  -2.998 -63.022 
  2.269 -12.532 -65.347 
 12.428  -8.269 -70.601 
 -0.534 -11.109 -68.328 
-10.022  -5.222 -67.340 
 -5.103  -1.757 -61.769 
 12.259   6.083 -66.624 
 13.012  11.683 -74.981 
 -4.032  -5.346 -71.167 
  8.464  11.764 -65.666 
  5.027  -4.320 -66.761 
 -1.786 -11.319 -72.773 
 -1.893  -9.831 -65.578 
  7.800  11.458 -70.050 
 -9.265   8.337 -61.877 
-15.378  -6.045 -75.070 
  7.962  -3.665 -64.834 
 -0.465   2.793 -77.398 
 10.682   8.175 -69.631 
 -2.617 -12.904 -65.365 
 -2.059   7.681 -73.474 
 -6.595  -4.687 -67.550 
 14.729 -12.074 -70.024 
-15.489   3.194 -76.695 
 -5.933  -5.037 -68.785 
-11.105   8.448 -72.739 
  0.760   2.284 -65.591 
 -3.320  -2.845 -73.868 
 10.557  -1.675 -71.132 
-10.409 -10.322 -73.950 
 16.443  -7.867 -74.228 
 -6.312   9.564 -75.755 
 16.484   3.369 -68.757 
 -3.370  -5.449 -62.446 
  1.914   1.667 -68.121 
 15.172  10.945 -69.886 
 11.229   5.459 -73.374 
-12.634   7.306 -69.198 
-13.086   5.284 -68.770 
 14.058   8.703 -65.293 
 11.503   4.564 -67.742 
  2.074 -10.836 -69.114 
-10.246  -0.193 -74.047 
-12.895  -3.237 -67.561 
  7.357   8.731 -62.281 
 -5.459   7.628 -70.469 
  8.261   2.335 -62.374 
  0.410   8.691 -66.847 
 14.502   1.025 -69.150 
 -5.282   2.386 -67.817 
 10.692   0.386 -65.424 
  6.146  10.455 -70.076 
  6.267   1.555 -72.389 
 -5.633   9.444 -72.165 
 13.567   3.154 -67.220 
  2.848  -4.488 -75.768 
 12.226   4.489 -61.975 
-13.843  11.401 -68.251 
 10.204  -0.238 -63.329 
  9.174  -0.492 -73.301 
-13.017  -6.984 -72.332 
 17.983  -3.436 -70.624 
 -8.489  -9.919 -66.261 
 15.797 -13.039 -69.236 
 -5.387   5.037 -63.999 
 -3.909   2.352 -71.078 
-13.401   6.072 -76.373 
  1.642   6.524 -77.216 
 14.593  -3.632 -68.257 
 14.690   7.591 -67.588 
  7.543   3.740 -61.606 
 -9.498   0.824 -72.183 
  6.837   0.305 -75.927 
  1.082   4.818 -76.217 
-12.688 -11.526 -67.947 
 -2.641  12.948 -67.900 
 11.859   0.896 -70.980 
 -4.235  -3.817 -64.840 
 16.050   4.106 -69.037 
 14.807  11.167 -74.923 
 16.294  13.112 -67.072 
 -8.848  11.628 -65.293 
-12.035  -7.661 -68.182 
  8.322   5.973 -62.505 
 11.025  11.139 -71.787 
 -4.771   9.460 -63.231 
  4.558  12.497 -67.729 
 -3.651  -5.513 -68.680 
 -8.270   1.490 -65.685 
  6.295   3.040 -74.013 
-12.287   5.646 -68.031 
-12.183   3.208 -66.248 
 12.846  12.087 -65.921 
 11.721   0.818 -66.478 
 14.705  11.587 -64.645 
 16.807   4.284 -68.966 
 13.737  -8.491 -69.160 
 15.514  -0.714 -69.352 
 13.290 -10.080 -69.147 
  1.046   0.041 -66.466 
  9.256   1.269 -68.712 
 10.703   4.742 -62.352 
  9.059   9.496 -64.490 
 13.452  -0.758 -66.500 
 10.478  -7.715 -71.061 
 -5.967   5.239 -64.358 
 -5.316   6.867 -71.219 
 13.221   2.585 -64.542 
  0.012   3.883 -66.965 
 -2.083  -8.725 -67.641 
 -2.319  -3.704 -75.464 
  4.807  -7.973 -66.494 
 13.123   6.460 -64.493 
 -6.729  -5.445 -70.030 
  2.015  -5.555 -67.762 
 -4.329   0.183 -70.756 
 -3.960   8.617 -67.340 
 -8.857   1.018 -65.440 
 -5.995   2.402 -76.258 
  7.172   7.559 -69.345 
 14.660   2.966 -72.869 
 10.367   1.509 -67.971 
  1.418  10.928 -71.775 
 -3.532  -0.400 -77.316 
 -3.156   9.909 -68.707 
  2.814 -11.803 -71.662 
-12.131  -0.578 -62.561 
  9.540 -11.463 -64.109 
 -1.192  -0.357 -69.720 
  6.667   8.276 -73.613 
 -4.003  -8.311 -69.408 
  1.589   7.719 -69.737 
 -9.404  -3.512 -67.395 
-14.294   5.808 -74.260 
 17.784  -3.933 -67.183 
 -3.327   8.315 -67.927 
 -3.024   9.994 -67.098 
 -8.282 -12.396 -73.340 
 15.971   1.081 -68.480 
-16.029  -4.273 -74.327 
 -2.486   1.143 -71.103 
  4.810  10.014 -71.348 
  3.642  -6.428 -69.486 
 -8.192 -12.450 -70.484 
 -9.809  -6.844 -66.035 
 -7.697   7.526 -64.037 
 -7.213  -8.801 -64.585 
 -0.384  -5.479 -68.912 
 -7.823   8.234 -60.088 
  1.523  -2.525 -67.713 
 -4.391  -7.415 -65.987 
 14.095  -7.883 -68.277 
  5.209   1.385 -66.225 
  4.129  -3.474 -68.980 
  4.788  -7.252 -73.179 
 -1.212   8.745 -69.632 
 -5.951  -2.502 -75.468 
-14.803   9.660 -71.772 
-11.165   4.762 -71.918 
  1.908  13.458 -63.573 
  4.078  -1.817 -71.252 
 -8.229   3.927 -67.573 
 -5.347 -11.878 -67.896 
  7.721  12.768 -65.798 
  2.263  -7.133 -76.019 
  9.716  -7.335 -71.016 
  3.010  -5.267 -76.562 
 -5.157  -9.137 -65.534 
 -2.995 -11.444 -65.829 
 -9.922  -8.264 -66.838 
  4.226  -6.615 -63.121 
  4.297  -8.722 -59.081 
 10.303 -11.114 -70.420 
 -2.740   5.274 -63.744 
  3.886 -12.451 -74.125 
 -7.194  -9.636 -61.912 
-14.596   6.456 -77.004 
 14.480 -12.160 -63.131 
 -2.269   6.341 -64.239 
 -0.960 -11.320 -69.169 
 10.142   0.875 -61.551 
 -8.403  11.098 -70.260 
 15.316   8.168 -61.752 
  2.793  -2.726 -64.045 
 -6.016  -7.651 -72.874 
  9.482   2.298 -76.213 
  4.743   9.354 -64.192 
 -0.328  -9.707 -65.608 
  0.945   6.126 -61.540 
  9.353  11.218 -63.730 
 -2.609   7.206 -64.275 
  0.812  -7.877 -68.755 
  2.470  -9.377 -69.457 
 -8.343   7.524 -75.303 
 14.250   1.452 -64.356 
 -0.901  -6.555 -62.916 
 17.086   5.980 -65.703 
 -0.061   6.681 -60.255 
 -9.002 -11.848 -74.590 
 11.769 -11.897 -65.123 
 11.630 -10.488 -61.638 
 -0.159  -3.517 -64.823 
 -8.369  -1.888 -64.821 
-11.363  -6.816 -74.553 
 -5.650  11.608 -61.353 
 -4.096  -9.407 -64.140 
  4.885   8.162 -77.602 
  1.043  -1.748 -69.870 
 16.563   9.564 -72.955 
-10.902  13.069 -62.307 
  6.343   2.716 -61.493 
 -8.164  10.339 -61.177 
 14.326 -11.122 -70.683 
  0.466  11.317 -58.753 
 11.668  -7.899 -66.896 
 15.378   3.502 -67.130 
 -6.956   1.753 -65.069 
 -6.917   7.196 -60.563 
-11.537   8.468 -70.815 
  4.058   3.328 -60.282 
 15.794  -4.732 -66.442 
 -8.258  -1.977 -74.520 
 12.794  -5.116 -69.910 
-14.019  -7.553 -74.816 
-11.073  -9.864 -60.868 
-15.886   3.242 -71.486 
-13.787 -12.185 -68.853 
  6.581   4.289 -73.996 
 16.136  -5.190 -65.460 
 15.098 -10.255 -69.981 
-12.009  -6.233 -73.188 
  3.199   2.780 -67.889 
-16.035   6.856 -72.913 
 10.776   2.526 -73.040 
 -4.925   2.673 -60.279 
 10.550 -11.376 -68.057 
-10.676   6.553 -74.730 
 -2.960   1.393 -68.540 
 13.730   5.845 -61.861 
  1.663  -2.524 -59.811 
 -9.305  -9.048 -64.324 
  5.265  -2.095 -68.697 
  9.226   5.849 -67.391 
  3.149   1.997 -65.409 
  4.636   9.446 -73.343 
-10.273 -11.313 -69.787 
 15.534  10.550 -68.974 
 11.900 -12.372 -62.276 
  8.781  -0.620 -70.537 
 -3.132  -2.531 -75.755 
-12.975  10.808 -65.035 
 13.044   1.793 -72.628 
-12.834   9.421 -70.475 
  8.219   7.833 -74.246 
  6.575  -5.070 -74.857 
 -4.274   6.152 -72.448 
-11.687   4.693 -78.026 
  9.091  -4.104 -76.083 
-11.184  11.369 -65.048 
 -8.320   7.152 -62.404 
  5.388 -11.139 -68.135 
 -9.220   0.341 -76.744 
  9.059   7.130 -66.994 
-13.340   0.257 -72.218 
 -5.738  10.220 -62.361 
  9.436  12.564 -68.677 
 11.306   8.560 -66.950 
 -2.051   9.478 -76.861 
-15.900  -1.249 -71.597 
  9.383 -12.190 -72.657 
 -2.673   6.164 -59.930 
 13.986  -7.320 -69.633 
  9.975  10.022 -74.688 
-11.765  -2.513 -77.893 
-16.102   2.375 -72.249 
 13.329  12.084 -63.636 
 -1.470   2.273 -62.169 
-16.091 -10.515 -70.058 
 -4.807  -4.021 -69.207 
 -2.499   5.789 -62.727 
 -2.044  11.486 -78.200 
 14.516  -0.427 -63.054 
 13.502  11.305 -70.043 
 -4.132  12.576 -64.726 
 -1.542  -0.863 -73.048 
  4.691  -2.004 -71.739 
 13.081  10.506 -64.480 
 -2.191   8.476 -62.562 
-13.473 -11.450 -77.087 
  9.006   9.131 -63.185 
 -2.119   9.709 -64.091 
-13.229  -9.098 -68.561 
 10.412   8.619 -72.251 
  4.137  -2.213 -64.885 
  7.233   5.365 -62.005 
  3.574   2.914 -60.575 
-14.672  11.346 -72.242 
 -0.899 -12.499 -62.779 
 10.406   3.369 -77.595 
  0.764  11.044 -62.269 
-13.569   7.466 -66.332 
  6.535   9.400 -65.075 
  4.973 -10.750 -70.919 
 -6.780   5.413 -70.049 
 -0.982   2.574 -72.139 
 -4.960   8.724 -72.429 
-11.914  -2.847 -71.910 
 -0.712  -7.361 -68.218 
  4.260  -2.479 -70.555 
 -2.705  -9.674 -65.465 
  0.996  -9.298 -68.825 
 12.371  -3.201 -65.219 
  8.530  -3.173 -65.781 
  0.535   9.379 -62.016 
  2.680   7.639 -60.823 
  6.192  -8.232 -69.987 
 -5.263  -0.810 -69.748 
 -5.212   5.514 -65.291 
-12.673  -1.449 -74.215 
  7.296  -3.540 -65.380 
  2.444   8.524 -76.964 
 10.260   6.476 -70.631 
 -6.148 -12.872 -68.084 
-15.419  -7.540 -73.382 
  6.112   7.784 -63.828 
-12.665   8.432 -73.921 
-14.210   1.288 -67.026 
-11.046  10.148 -71.729 
  9.243   0.012 -67.170 
 -1.560  13.610 -70.244 
 15.953   9.434 -74.414 
 -3.480  -3.862 -66.248 
 -0.920 -10.730 -61.051 
-12.200  11.907 -61.344 
 15.581   2.280 -65.882 
 11.789   5.736 -73.870 
  8.319 -13.205 -62.325 
  5.683  10.343 -64.142 

 VERTICES 525 1050 
1 0 
1 1 
1 2 
1 3 
1 4 
1 5 
1 6 
1 7 
1 8 
1 9 
1 10 
1 11 
1 12 
1 13 
1 14 
1 15 
1 16 
1 17 
1 18 
1 19 
1 20 
1 21 
1 22 
1 23 
1 24 
1 25 
1 26 
1 27 
1 28 
1 29 
1 30 
1 31 
1 32 
1 33 
1 34 
1 35 
1 36 
1 37 
1 38 
1 39 
1 40 
1 41 
1 42 
1 43 
1 44 
1 45 
1 46 
1 47 
1 48 
1 49 
1 50 
1 51 
1 52 
1 53 
1 54 
1 55 
1 56 
1 57 
1 58 
1 59 
1 60 
1 61 
1 62 
1 63 
1 64 
1 65 
1 66 
1 67 
1 68 
1 69 
1 70 
1 71 
1 72 
1 73 
1 74 
1 75 
1 76 
1 77 
1 78 
1 79 
1 80 
1 81 
1 82 
1 83 
1 84 
1 85 
1 86 
1 87 
1 88 
1 89 
1 90 
1 91 
1 92 
1 93 
1 94 
1 95 
1 96 
1 97 
1 98 
1 99 
1 100 
1 101 
1 102 
1 103 
1 104 
1 105 
1 106 
1 107 
1 108 
1 109 
1 110 
1 111 
1 112 
1 113 
1 114 
1 115 
1 116 
1 117 
1 118 
1 119 
1 120 
1 121 
1 122 
1 123 
1 124 
1 125 
1 126 
1 127 
1 128 
1 129 
1 130 
1 131 
1 132 
1 133 
1 134 
1 135 
1 136 
1 137 
1 138 
1 139 
1 140 
1 141 
1 142 
1 143 
1 144 
1 145 
1 146 
1 147 
1 148 
1 149 
1 150 
1 151 
1 152 
1 153 
1 154 
1 155 
1 156 
1 157 
1 158 
1 159 
1 160 
1 161 
1 162 
1 163 
1 164 
1 165 
1 166 
1 167 
1 168 
1 169 
1 170 
1 171 
1 172 
1 173 
1 174 
1 175 
1 176 
1 177 
1 178 
1 179 
1 180 
1 181 
1 182 
1 183 
1 184 
1 185 
1 186 
1 187 
1 188 
1 189 
1 190 
1 191 
1 192 
1 193 
1 194 
1 195 
1 196 
1 197 
1 198 
1 199 
1 200 
1 201 
1 202 
1 203 
1 204 
1 205 
1 206 
1 207 
1 208 
1 209 
1 210 
1 211 
1 212 
1 213 
1 214 
1 215 
1 216 
1 217 
1 218 
1 219 
1 220 
1 221 
1 222 
1 223 
1 224 
1 225 
1 226 
1 227 
1 228 
1 229 
1 230 
1 231 
1 232 
1 233 
1 234 
1 235 
1 236 
1 237 
1 238 
1 239 
1 240 
1 241 
1 242 
1 243 
1 244 
1 245 
1 246 
1 247 
1 248 
1 249 
1 250 
1 251 
1 252 
1 253 
1 254 
1 255 
1 256 
1 257 
1 258 
1 259 
1 260 
1 261 
1 262 
1 263 
1 264 
1 265 
1 266 
1 267 
1 268 
1 269 
1 270 
1 271 
1 272 
1 273 
1 274 
1 275 
1 276 
1 277 
1 278 
1 279 
1 280 
1 281 
1 282 
1 283 
1 284 
1 285 
1 286 
1 287 
1 288 
1 289 
1 290 
1 291 
1 292 
1 293 
1 294 
1 295 
1 296 
1 297 
1 298 
1 299 
1 300 
1 301 
1 302 
1 303 
1 304 
1 305 
1 306 
1 307 
1 308 
1 309 
1 310 
1 311 
1 312 
1 313 
1 314 
1 315 
1 316 
1 317 
1 318 
1 319 
1 320 
1 321 
1 322 
1 323 
1 324 
1 325 
1 326 
1 327 
1 328 
1 329 
1 330 
1 331 
1 332 
1 333 
1 334 
1 335 
1 336 
1 337 
1 338 
1 339 
1 340 
1 341 
1 342 
1 343 
1 344 
1 345 
1 346 
1 347 
1 348 
1 349 
1 350 
1 351 
1 352 
1 353 
1 354 
1 355 
1 356 
1 357 
1 358 
1 359 
1 360 
1 361 
1 362 
1 363 
1 364 
1 365 
1 366 
1 367 
1 368 
1 369 
1 370 
1 371 
1 372 
1 373 
1 374 
1 375 
1 376 
1 377 
1 378 
1 379 
1 380 
1 381 
1 382 
1 383 
1 384 
1 385 
1 386 
1 387 
1 388 
1 389 
1 390 
1 391 
1 392 
1 393 
1 394 
1 395 
1 396 
1 397 
1 398 
1 399 
1 400 
1 401 
1 402 
1 403 
1 404 
1 405 
1 406 
1 407 
1 408 
1 409 
1 410 
1 411 
1 412 
1 413 
1 414 
1 415 
1 416 
1 417 
1 418 
1 419 
1 420 
1 421 
1 422 
1 423 
1 424 
1 425 
1 426 
1 427 
1 428 
1 429 
1 430 
1 431 
1 432 
1 433 
1 434 
1 435 
1 436 
1 437 
1 438 
1 439 
1 440 
1 441 
1 442 
1 443 
1 444 
1 445 
1 446 
1 447 
1 448 
1 449 
1 450 
1 451 
1 452 
1 453 
1 454 
1 455 
1 456 
1 457 
1 458 
1 459 
1 460 
1 461 
1 462 
1 463 
1 464 
1 465 
1 466 
1 467 
1 468 
1 469 
1 470 
1 471 
1 472 
1 473 
1 474 
1 475 
1 476 
1 477 
1 478 
1 479 
1 480 
1 481 
1 482 
1 483 
1 484 
1 485 
1 486 
1 487 
1 488 
1 489 
1 490 
1 491 
1 492 
1 493 
1 494 
1 495 
1 496 
1 497 
1 498 
1 499 
1 500 
1 501 
1 502 
1 503 
1 504 
1 505 
1 506 
1 507 
1 508 
1 509 
1 510 
1 511 
1 512 
1 513 
1 514 
1 515 
1 516 
1 517 
1 518 
1 519 
1 520 
1 521 
1 522 
1 523 
1 524 
POINT_DATA 525 
SCALARS MeanU double 1 
LOOKUP_TABLE default
0.16852 
0.09566 
0.18509 
0.11080 
0.22971 
0.08050 
0.14545 
0.08470 
0.17833 
0.11927 
0.11749 
0.16718 
0.07175 
0.06985 
0.05757 
0.08134 
0.16143 
0.15306 
0.12760 
0.16934 
0.15457 
0.12731 
0.09409 
0.20171 
0.11745 
0.26867 
0.19875 
0.10512 
0.16869 
0.13600 
0.09593 
0.12772 
0.07754 
0.15978 
0.12315 
0.09685 
0.14235 
0.07718 
0.12323 
0.16186 
0.14864 
0.16773 
0.09196 
0.08438 
0.22155 
0.23269 
0.14527 
0.13234 
0.24886 
0.10468 
0.12055 
0.18899 
0.06464 
0.29024 
0.18675 
0.14516 
0.12705 
0.12653 
0.08590 
0.18590 
0.12415 
0.13015 
0.10624 
0.08895 
0.19103 
0.11647 
0.11351 
0.07213 
0.15074 
0.08196 
0.14265 
0.14997 
0.13926 
0.10813 
0.13387 
0.08112 
0.29936 
0.11861 
0.08167 
0.22909 
0.07702 
0.09684 
0.13787 
0.18833 
0.05264 
0.20153 
0.10784 
0.15106 
0.09191 
0.07540 
0.15853 
0.09837 
0.09730 
0.04953 
0.08750 
0.13206 
0.10417 
0.17826 
0.19920 
0.17229 
0.21286 
0.10624 
0.27267 
0.21095 
0.23619 
0.23135 
0.10629 
0.11699 
0.09339 
0.13269 
0.15067 
0.07309 
0.17636 
0.09930 
0.14098 
0.13359 
0.17463 
0.18487 
0.11453 
0.08767 
0.18664 
0.13799 
0.20382 
0.04826 
0.10641 
0.08940 
0.07735 
0.12996 
0.25519 
0.19913 
0.09492 
0.25191 
0.16545 
0.21096 
0.20215 
0.14625 
0.08818 
0.08053 
0.19510 
0.26280 
0.23081 
0.23675 
0.11123 
0.19024 
0.24131 
0.13252 
0.27606 
0.10477 
0.14900 
0.11160 
0.12967 
0.15517 
0.26295 
0.08361 
0.18061 
0.10097 
0.06850 
0.13117 
0.04754 
0.23988 
0.20844 
0.09426 
0.07679 
0.16079 
0.07670 
0.14419 
0.25607 
0.16652 
0.05511 
0.18582 
0.10221 
0.07453 
0.17728 
0.12874 
0.12175 
0.09043 
0.10973 
0.22746 
0.12832 
0.19006 
0.15233 
0.24317 
0.16029 
0.10618 
0.09929 
0.13032 
0.20715 
0.12155 
0.06018 
0.13331 
0.10533 
0.08350 
0.23387 
0.16163 
0.08341 
0.13643 
0.06575 
0.25419 
0.07829 
0.06592 
0.12817 
0.11630 
0.05393 
0.14611 
0.07256 
0.08859 
0.06240 
0.15701 
0.20166 
0.10179 
0.15342 
0.16176 
0.13603 
0.10442 
0.10429 
0.13890 
0.16076 
0.10814 
0.09079 
0.05608 
0.18594 
0.23369 
0.07063 
0.16048 
0.18183 
0.26770 
0.14822 
0.12657 
0.09012 
0.15756 
0.17925 
0.10095 
0.14150 
0.12610 
0.09293 
0.05609 
0.19762 
0.11834 
0.05556 
0.14367 
0.09860 
0.12833 
0.09998 
0.15545 
0.12296 
0.09014 
0.26099 
0.11996 
0.09597 
0.14710 
0.05444 
0.09022 
0.18175 
0.09094 
0.09231 
0.10452 
0.12262 
0.12399 
0.12328 
0.12407 
0.13859 
0.10975 
0.08521 
0.09681 
0.25822 
0.13883 
0.11823 
0.10285 
0.17333 
0.18238 
0.11436 
0.08475 
0.14196 
0.09354 
0.24731 
0.17025 
0.14869 
0.14486 
0.18391 
0.09222 
0.11508 
0.15551 
0.12164 
0.13810 
0.04620 
0.08170 
0.17550 
0.19173 
0.11738 
0.05270 
0.18075 
0.10055 
0.09062 
0.20011 
0.14718 
0.11800 
0.08285 
0.13748 
0.15368 
0.14681 
0.08365 
0.24518 
0.23043 
0.10715 
0.18258 
0.12597 
0.12694 
0.05405 
0.13962 
0.12774 
0.10107 
0.10304 
0.08646 
0.16416 
0.16301 
0.19896 
0.12449 
0.03447 
0.10010 
0.25389 
0.10216 
0.09103 
0.08733 
0.12605 
0.15133 
0.07764 
0.16594 
0.11550 
0.08000 
0.19951 
0.10880 
0.19482 
0.08656 
0.21159 
0.11880 
0.04872 
0.31421 
0.11686 
0.14972 
0.13876 
0.18883 
0.16101 
0.11591 
0.18179 
0.12813 
0.14252 
0.18505 
0.18384 
0.14703 
0.11673 
0.08094 
0.06369 
0.20125 
0.03920 
0.14561 
0.12036 
0.20581 
0.20326 
0.25467 
0.08509 
0.07844 
0.12049 
0.21261 
0.13132 
0.12384 
0.08668 
0.12939 
0.10446 
0.07326 
0.20544 
0.30195 
0.12331 
0.27973 
0.07120 
0.10244 
0.09130 
0.07476 
0.12334 
0.13581 
0.14246 
0.06628 
0.13702 
0.20371 
0.08939 
0.13754 
0.13511 
0.15209 
0.14413 
0.27805 
0.23063 
0.18227 
0.17748 
0.13191 
0.10490 
0.15044 
0.09197 
0.14904 
0.09455 
0.06867 
0.17962 
0.07259 
0.06483 
0.10631 
0.10676 
0.07739 
0.13623 
0.16436 
0.11056 
0.15768 
0.11011 
0.13811 
0.23938 
0.17461 
0.09796 
0.18953 
0.10180 
0.12955 
0.08947 
0.18480 
0.08214 
0.07032 
0.19025 
0.18544 
0.13411 
0.13053 
0.10305 
0.28189 
0.24747 
0.18230 
0.14230 
0.15095 
0.07132 
0.11495 
0.10761 
0.09782 
0.16250 
0.09687 
0.10633 
0.11695 
0.19103 
0.12944 
0.22209 
0.15345 
0.16841 
0.13187 
0.14631 
0.13506 
0.10540 
0.16761 
0.12671 
0.13160 
0.15350 
0.08918 
0.12581 
0.12398 
0.21124 
0.13329 
0.08914 
0.06555 
0.22272 
0.07668 
0.16548 
0.16528 
0.14098 
0.13556 
0.16491 
0.09257 
0.10665 
0.13107 
0.14706 
0.07755 
0.25313 
0.14229 
0.10949 
0.16967 
0.20215 
0.08617 
0.10395 
0.18012 
0.16554 
0.31471 
0.09044 
0.24623 
0.04963 
0.04740 
0.22916 
0.16132 
0.10561 
0.04034 
0.14412 
0.23449 
0.19495 
0.08999 
0.20166 
0.09823 
0.18595 
0.09752 
0.11153 
0.11509 
0.11658 
0.07269 
0.11355 
0.17477 
0.25745 
0.10197 
0.13445 
0.18421 
0.10017 
0.10678 
0.12743 
0.12903 
0.08647 
0.07428 
0.18575 
0.10458 
0.14052 
0.13414 
0.19250 
0.18621 
0.23173 
0.11449 
0.11964 
0.15765 
0.09295 
0.07274 

 VECTORS Umean float 
0.00100 0.02600 -0.16650 
0.01000 0.08700 -0.03850 
0.08600 0.12150 -0.11000 
0.02950 0.10000 -0.03750 
0.18250 0.11250 -0.08250 
0.01250 0.07950 -0.00200 
0.03150 0.12750 0.06250 
0.00500 0.08450 -0.00300 
-0.02700 0.16200 -0.06950 
-0.00750 0.11000 -0.04550 
-0.05100 0.10150 -0.03000 
0.10100 0.08450 -0.10300 
0.00800 0.05650 0.04350 
-0.00250 0.03650 -0.05950 
0.00100 0.03100 -0.04850 
-0.01150 0.07800 0.02000 
0.08900 0.11850 -0.06400 
0.03900 0.13800 -0.05350 
0.03500 0.08500 -0.08850 
0.11050 0.12800 0.00900 
0.00150 0.13650 -0.07250 
-0.01250 0.12450 0.02350 
-0.07550 0.02650 -0.04950 
0.06450 0.04600 -0.18550 
0.06550 0.09600 -0.01700 
0.00800 0.11950 -0.24050 
0.06750 0.09500 -0.16100 
0.00100 0.10500 0.00500 
0.02950 0.14500 -0.08100 
-0.01150 0.13450 0.01650 
0.01350 0.09450 -0.00950 
0.05400 0.10950 -0.03750 
-0.06600 -0.04000 0.00750 
0.12100 0.07150 -0.07600 
0.11950 0.02850 -0.00850 
-0.01750 0.09150 0.02650 
0.02250 0.13350 0.04400 
0.00350 0.05600 -0.05300 
0.03000 0.08300 -0.08600 
0.06700 -0.03550 -0.14300 
0.06750 0.05150 -0.12200 
0.05000 0.15600 -0.03600 
0.06750 0.02050 -0.05900 
0.02250 0.05700 0.05800 
0.10150 0.14000 -0.13850 
0.13350 0.09000 -0.16800 
-0.03050 0.12550 0.06650 
0.10050 0.03950 -0.07650 
0.07300 0.20800 -0.11550 
0.08350 0.04100 -0.04800 
-0.00650 0.08950 0.08050 
0.10850 0.13800 -0.07000 
0.00150 0.02850 -0.05800 
0.14000 0.05600 -0.24800 
0.12900 0.01200 -0.13450 
0.03750 0.14000 -0.00800 
0.04750 0.07300 -0.09250 
0.02050 0.10750 0.06350 
-0.01050 0.08250 0.02150 
0.07050 0.15800 -0.06800 
0.05100 0.10450 -0.04350 
0.03600 0.11650 0.04550 
-0.00650 0.01800 -0.10450 
-0.01400 0.08450 -0.02400 
0.11550 0.04450 -0.14550 
0.03250 0.07150 -0.08600 
0.03900 0.10650 -0.00450 
0.00950 0.07150 0.00050 
0.03600 0.14600 0.01050 
0.02800 0.07650 0.00900 
0.12400 -0.01200 -0.06950 
-0.02150 0.14250 0.04150 
-0.10750 0.05150 0.07200 
0.01600 0.10550 0.01750 
0.06750 0.10000 -0.05800 
0.00200 0.07950 -0.01600 
0.09800 0.08900 -0.26850 
0.02600 0.06750 -0.09400 
0.01700 0.07500 -0.02750 
0.00600 0.18750 -0.13150 
0.00250 0.07550 0.01500 
0.03250 0.09050 -0.01150 
0.06550 0.02600 -0.11850 
0.08750 0.14550 -0.08150 
0.01600 0.04700 0.01750 
0.18800 0.00350 -0.07250 
0.08850 0.04850 -0.03800 
0.03950 0.08700 -0.11700 
0.01700 0.05250 -0.07350 
-0.01950 0.07200 -0.01100 
0.08050 0.01250 -0.13600 
0.02050 0.07600 -0.05900 
0.04900 0.06400 -0.05450 
0.01600 -0.00900 -0.04600 
-0.00500 0.08400 0.02400 
-0.03150 0.12100 0.04250 
0.04850 0.08700 -0.03050 
0.14300 0.04700 -0.09550 
0.09650 0.15100 -0.08700 
0.03350 0.08250 -0.14750 
0.08850 0.07250 -0.17950 
0.02600 0.09450 -0.04100 
0.06000 0.14950 -0.22000 
0.13200 0.01850 -0.16350 
0.07650 0.15650 -0.15950 
-0.05900 0.18750 0.12200 
0.03100 0.09650 -0.03200 
0.04150 0.09900 -0.04650 
-0.06650 0.04300 -0.04950 
0.09150 0.03500 -0.08950 
0.12150 0.07200 0.05250 
-0.01450 0.06750 0.02400 
0.06550 0.15700 0.04650 
0.02900 0.06250 -0.07150 
-0.02250 0.13800 0.01800 
0.02550 0.13100 -0.00600 
0.00450 0.06250 0.16300 
0.08550 0.14600 -0.07450 
0.01000 0.08850 -0.07200 
-0.01900 0.07400 -0.04300 
-0.10150 0.06500 0.14250 
0.07850 0.08050 -0.08000 
0.08150 0.06800 -0.17400 
0.02450 0.01300 -0.03950 
-0.01650 0.09500 -0.04500 
0.05950 0.05800 -0.03300 
0.02800 0.04350 0.05750 
0.04700 0.11800 -0.02750 
0.16200 0.08050 -0.18000 
0.14550 0.08450 -0.10650 
0.02850 0.03500 -0.08350 
0.12000 0.12550 -0.18250 
0.04650 0.11450 -0.11000 
0.08700 0.03200 -0.18950 
-0.00750 0.07000 -0.18950 
0.03300 0.10050 -0.10100 
0.01300 0.01450 -0.08600 
-0.01250 -0.02350 -0.07600 
0.03550 0.14200 -0.12900 
0.09750 0.24400 0.00450 
0.00100 0.02450 -0.22950 
0.06800 0.14050 -0.17800 
0.03050 0.10400 0.02500 
0.07900 0.14400 -0.09600 
0.09000 0.13450 -0.17900 
0.09950 0.08750 0.00200 
0.11450 0.10100 -0.23000 
0.08400 0.02900 -0.05550 
0.08350 0.12300 -0.01000 
-0.04200 0.09050 -0.05000 
0.06250 0.10250 -0.04900 
0.05350 0.11900 -0.08400 
0.07800 0.23500 -0.08850 
0.02850 0.07400 -0.02650 
0.10600 0.07750 -0.12400 
0.03550 -0.00200 -0.09450 
0.02400 0.06200 0.01650 
0.01550 0.01400 -0.12950 
0.00200 0.04750 0.00050 
0.05750 0.09750 -0.21150 
-0.00450 0.06650 -0.19750 
0.05450 0.04550 -0.06200 
0.02350 0.05600 -0.04700 
0.03700 0.12800 0.09000 
-0.00800 0.07400 -0.01850 
0.12250 0.06700 -0.03600 
0.14800 0.16200 -0.13200 
0.12700 -0.01600 -0.10650 
0.02500 0.04550 -0.01850 
0.08800 0.05400 -0.15450 
0.07750 0.02900 -0.06000 
0.02000 0.05750 -0.04300 
0.02350 0.17400 -0.02450 
0.03800 0.03300 -0.11850 
-0.06200 0.10150 0.02600 
0.01600 0.05300 -0.07150 
0.09000 0.02000 -0.05950 
0.05400 -0.10200 -0.19600 
0.10300 0.02450 -0.07250 
0.00300 0.04750 -0.18400 
0.13500 0.07050 -0.00300 
0.17450 0.08750 -0.14500 
0.06900 0.06550 -0.12900 
0.05550 0.06500 -0.06300 
0.02000 0.09700 0.00700 
0.05900 -0.02250 -0.11400 
0.10750 0.04000 -0.17250 
0.01500 0.08250 -0.08800 
0.05150 0.02700 0.01550 
0.01900 0.06100 -0.11700 
0.09200 0.05100 0.00550 
0.05250 0.03450 -0.05500 
0.08050 0.09900 -0.19600 
0.06050 0.13600 -0.06300 
0.05850 -0.01850 -0.05650 
0.07250 0.01900 -0.11400 
-0.03100 0.04150 -0.04050 
0.18800 0.01400 -0.17050 
0.06850 0.03250 -0.01950 
0.04100 0.04800 -0.01900 
-0.04850 -0.10850 -0.04800 
-0.03650 0.10850 -0.02050 
0.01000 0.01250 -0.05150 
0.09050 0.10300 -0.05050 
0.02400 0.06750 0.01150 
0.07600 0.03550 -0.02850 
0.04200 0.01800 -0.04250 
0.04050 0.15050 -0.01900 
0.15700 0.11350 -0.05600 
0.07300 0.04600 -0.05400 
-0.09900 0.05500 -0.10350 
0.09650 0.01850 -0.12850 
-0.01200 0.13550 0.00050 
0.03000 0.03550 -0.09350 
-0.01000 0.10350 0.00800 
0.04750 0.05250 -0.11950 
0.09400 0.10100 -0.08250 
0.09350 0.00950 -0.05350 
0.03300 0.08350 -0.01350 
0.03600 0.04250 -0.00650 
0.08050 0.11650 -0.12050 
0.05950 0.14050 -0.17700 
0.05550 0.01200 -0.04200 
0.10550 0.04800 -0.11100 
0.01600 0.17800 -0.03350 
0.05000 0.23350 -0.12100 
0.07400 0.10600 -0.07250 
0.04550 0.10700 -0.05000 
0.07400 0.02400 -0.04550 
0.00700 0.09500 -0.12550 
0.07400 0.07000 -0.14750 
-0.01050 0.09000 -0.04450 
0.08100 0.11600 0.00250 
0.09250 0.07950 -0.03200 
0.03100 0.07050 0.05200 
0.02800 0.02900 -0.03900 
0.06600 0.17400 -0.06650 
0.05300 0.10350 -0.02200 
-0.02550 0.04800 0.01150 
0.05600 0.08050 -0.10500 
0.02450 0.09550 -0.00150 
0.03600 0.11650 -0.04000 
0.04800 0.05600 0.06750 
0.05000 0.14450 -0.02800 
-0.02600 0.11850 0.02000 
0.02700 0.06850 -0.05200 
0.06500 0.09800 -0.23300 
0.05350 0.08350 -0.06750 
0.06900 0.03700 -0.05550 
0.11450 -0.01250 -0.09150 
0.04650 0.01900 -0.02100 
0.00850 0.08250 -0.03550 
0.09750 0.11800 -0.09800 
-0.03800 0.06500 0.05100 
0.00900 0.08700 -0.02950 
0.10400 0.01000 -0.00300 
0.09400 0.02550 -0.07450 
0.06350 0.10650 -0.00050 
-0.01850 0.10800 -0.05650 
0.04400 0.08850 -0.07500 
0.02250 0.11500 -0.07400 
0.00950 0.01350 -0.10850 
-0.02000 0.08050 0.01950 
0.00300 0.09200 -0.03000 
0.14700 0.05700 -0.20450 
0.11050 0.01600 -0.08250 
0.11200 0.02800 -0.02550 
0.04150 0.09400 -0.00450 
-0.01900 0.17000 0.02800 
0.04150 0.05300 -0.16950 
0.03800 0.10150 -0.03650 
0.04600 -0.06050 -0.03750 
-0.08050 0.07700 0.08800 
-0.06800 0.05450 0.03400 
0.11200 -0.00000 -0.22050 
0.01750 0.05550 -0.16000 
0.05100 0.10000 -0.09750 
0.06850 0.12750 0.00600 
-0.03400 0.08500 -0.15950 
0.01850 -0.08350 -0.03450 
0.03850 0.10450 -0.02900 
0.12700 0.08900 -0.01150 
0.09500 0.06550 -0.03850 
0.05900 0.03450 -0.12000 
-0.03050 0.02800 -0.02050 
0.05750 0.05800 -0.00200 
0.10950 0.13300 -0.03350 
0.14700 0.11950 -0.02950 
0.05450 0.10150 -0.02250 
0.00800 0.05200 -0.00300 
0.06900 0.14200 -0.08800 
0.03400 0.01750 -0.09300 
0.00300 0.07450 -0.05150 
0.09950 0.16700 -0.04750 
0.02950 0.13950 0.03650 
0.04000 0.11000 -0.01500 
0.02150 0.08000 -0.00150 
0.04800 0.10750 -0.07100 
0.11800 0.05450 -0.08200 
0.03500 0.13700 -0.03950 
0.03250 0.07100 -0.03000 
0.09850 0.00300 -0.22450 
0.12250 0.13900 -0.13700 
-0.00550 0.08500 0.06500 
0.00450 0.08600 -0.16100 
0.06400 0.06550 -0.08650 
0.03050 0.10000 -0.07200 
-0.05000 -0.01150 -0.01700 
0.02750 0.13600 -0.01550 
-0.00750 0.12750 0.00250 
0.07000 0.06950 -0.02200 
-0.01450 0.09750 0.03000 
0.07850 0.01600 -0.03250 
0.08550 0.07400 -0.11900 
0.08250 0.01750 -0.13950 
0.02100 0.10450 -0.16800 
0.04800 0.08700 -0.07500 
0.00300 -0.00950 -0.03300 
-0.02100 0.09300 0.03050 
0.11250 0.18100 -0.13800 
-0.02150 0.06300 -0.07750 