# vtk DataFile Version 2.0 
Xm, Ym, Zm, Uvecs, timestep 10123 
ASCII 
 
DATASET POLYDATA POINTS 516 float 
 -3.437  -4.162 -73.445 
  0.547   3.864 -72.643 
  0.183   8.436 -68.122 
 -5.519   4.628 -71.639 
  5.710   1.918 -72.689 
  5.931  -2.632 -73.433 
 -1.000   5.153 -70.585 
  6.888   6.084 -68.189 
 -0.913  11.375 -68.471 
  2.059   1.961 -69.114 
 -9.184   4.276 -73.494 
  3.271   2.460 -69.557 
-10.607   9.576 -70.891 
 -2.104  -2.000 -71.804 
  6.653   2.748 -72.975 
  0.773 -10.459 -71.875 
  7.260   6.526 -72.965 
  7.462  -2.734 -70.831 
  1.731   8.837 -67.617 
 -0.256   7.960 -69.355 
  5.280  11.006 -73.609 
-15.701   9.851 -72.929 
  9.870   4.801 -72.038 
 -8.959  12.618 -70.868 
-14.600  -6.229 -71.990 
 -7.161  -7.963 -68.621 
-12.357   8.791 -68.957 
  7.599   6.468 -66.681 
-10.680   7.041 -68.029 
 -3.588   2.065 -67.426 
 -6.635  11.791 -68.570 
  0.735   8.955 -68.072 
 -4.638   4.806 -64.153 
  1.437  11.527 -66.922 
 -7.347   2.575 -65.123 
  1.446  11.084 -69.392 
 -2.519   0.144 -65.067 
  9.950  -0.415 -67.730 
 -7.053   7.862 -64.605 
  5.681  -6.416 -72.677 
 -0.965 -10.043 -70.794 
  4.729  -5.848 -67.516 
  3.643   1.544 -71.051 
 -6.349  -4.784 -69.191 
  2.729   1.256 -73.948 
 -7.554 -12.191 -68.590 
  1.084  -4.534 -73.757 
 -1.607  12.733 -67.249 
 -3.634  10.526 -67.448 
 -2.842 -11.994 -72.696 
  0.729  -9.493 -68.862 
  8.140  -0.540 -71.525 
  1.519  -9.163 -66.454 
 -7.204   5.522 -63.477 
  4.567  -8.959 -68.891 
 -0.367   3.938 -66.442 
-10.153  -6.713 -67.816 
  8.809   8.505 -64.426 
  1.664   0.631 -67.245 
 -0.609   6.124 -66.363 
 -2.811   1.041 -65.681 
  9.609   7.568 -68.956 
  9.036  -7.747 -69.034 
 -3.908   4.494 -71.846 
 -1.584  11.296 -65.624 
  7.402 -10.413 -69.403 
  1.555  10.267 -65.960 
 -5.037   0.733 -70.270 
  4.443   6.742 -67.197 
  4.630   8.720 -71.107 
  9.954  -2.447 -69.935 
 -0.053  10.064 -68.762 
  1.649  12.377 -64.812 
 -5.992   8.232 -72.183 
 -1.646  -7.032 -67.064 
-12.923  -1.107 -71.351 
-15.800  -9.044 -72.697 
 -0.615   6.572 -71.557 
 -9.468  -4.902 -67.869 
-12.476  -0.684 -68.449 
 -7.925  10.860 -66.305 
 -5.492   3.851 -63.643 
 -2.896   8.390 -68.897 
 15.695   7.317 -68.492 
 -0.443  -9.131 -69.983 
 -3.966  10.778 -60.865 
 11.584  -3.190 -64.835 
 10.011   4.860 -67.712 
 -5.792   9.322 -62.662 
  9.338   5.774 -69.564 
 -1.207  -3.517 -64.131 
-12.055   7.201 -70.766 
 12.947   1.485 -67.096 
 -8.355  -7.447 -68.469 
 16.151   5.768 -72.072 
 -2.616 -11.200 -74.835 
-10.592   7.743 -62.819 
  8.101  -0.995 -66.577 
 -8.040   6.408 -68.983 
  4.905   9.165 -64.840 
 -5.221  -1.071 -63.372 
  4.638 -12.776 -67.199 
  2.130   7.472 -72.463 
 -0.466  -3.759 -64.584 
 -7.803   4.857 -76.124 
-12.669  -8.070 -67.640 
-10.738   4.156 -69.968 
 -2.974  -6.941 -72.159 
 -1.228  13.247 -64.546 
 -1.601  -6.352 -67.823 
 12.070  11.657 -67.459 
  0.845 -10.220 -65.766 
 12.595  -5.696 -66.108 
 17.005   8.809 -68.814 
  0.808 -10.921 -65.469 
-13.182  -3.398 -70.638 
 -9.823  -8.305 -68.708 
  7.375   0.165 -73.412 
  0.404   1.675 -64.498 
 -2.920   1.031 -68.064 
  0.410  -2.445 -68.476 
 -1.664  -9.162 -63.227 
  9.834  -1.712 -72.102 
  5.680   2.882 -72.158 
  4.202   2.622 -65.051 
 -0.765   4.604 -73.852 
  0.712   7.018 -63.545 
 -0.711  -7.284 -69.649 
 -2.848   9.636 -62.468 
  4.806   5.591 -66.084 
 -5.265  11.448 -74.748 
 -8.367   1.748 -66.631 
 12.186  -4.113 -68.472 
 -2.158 -12.287 -68.785 
 -3.773   5.869 -62.246 
 -7.473   3.353 -61.837 
  2.806   4.690 -62.739 
-13.246   2.103 -67.482 
 14.697   3.664 -68.107 
  8.479   6.177 -65.791 
-12.409   4.302 -70.829 
  9.969  -4.536 -71.215 
  2.992   6.398 -69.523 
 -1.995   6.893 -62.240 
 -0.289   3.597 -65.329 
  0.713   8.922 -74.550 
  7.296  -9.820 -75.694 
 -2.515   8.412 -76.148 
 -4.466  12.119 -63.243 
  1.161  -3.139 -64.760 
  5.860 -10.174 -66.663 
 -9.650  -1.931 -73.436 
  9.655   2.093 -71.965 
-14.386   4.890 -69.560 
  2.024  -3.431 -66.727 
  9.980   0.077 -68.405 
 -2.846   5.774 -62.016 
-12.070   3.665 -70.647 
 -8.207  -6.082 -67.065 
  5.941  -8.142 -67.722 
  5.835 -11.797 -68.867 
 10.340 -11.610 -66.642 
  4.989 -11.746 -68.837 
 -8.855   9.457 -75.178 
  3.020   0.069 -64.781 
  7.702   2.848 -75.322 
 -9.006   6.917 -74.955 
-13.437  10.564 -71.945 
 13.046   9.519 -72.368 
  9.645   9.489 -70.938 
-14.884  -9.150 -71.885 
  0.413  -2.134 -63.718 
  0.042  -3.243 -75.764 
  0.614 -11.562 -68.165 
  6.344   6.589 -63.744 
-11.719   4.421 -62.776 
-11.303  -9.303 -68.100 
 -0.483  13.253 -65.326 
  3.934  -9.111 -64.978 
 -9.732  -0.161 -73.293 
 -3.483  -7.841 -68.547 
  4.463  -7.732 -67.700 
  7.926  10.627 -63.006 
 -0.434  -3.330 -60.599 
-10.823  -0.804 -74.956 
-10.573   9.276 -64.636 
 11.927  12.040 -74.321 
 14.602   7.960 -75.206 
 -1.486 -11.933 -67.756 
  1.222  -0.199 -66.650 
  7.825   5.524 -60.624 
 -4.729  -3.101 -77.436 
  5.508   2.578 -62.468 
 13.881 -12.897 -69.594 
 10.336  -6.145 -71.813 
 -4.973 -10.486 -66.941 
  0.630  -1.707 -72.948 
-11.390   7.184 -75.174 
 -6.374  -2.047 -73.122 
 14.287   0.822 -68.701 
-11.250   6.707 -72.576 
 10.032  -2.007 -63.879 
-13.849   4.956 -73.512 
 -0.076   7.550 -67.333 
 12.289  -1.240 -68.182 
  5.998  -7.039 -72.643 
 13.674 -11.718 -76.180 
 14.598  10.080 -68.324 
  6.569  -5.002 -63.864 
 10.797  -5.048 -65.801 
  7.029  -1.783 -69.222 
  6.388   2.554 -67.394 
 -2.935  -4.101 -63.361 
 -1.410   8.252 -64.362 
  6.707  10.059 -70.183 
 -7.420  -5.213 -67.061 
 -7.699  -7.091 -67.992 
-14.650   2.248 -76.393 
-11.469  -6.140 -65.861 
-11.791   5.310 -68.598 
 -4.661  12.222 -74.316 
  5.053   9.825 -75.371 
 -8.788   3.399 -68.034 
-15.748   8.904 -73.071 
 -7.262 -10.282 -73.704 
  5.711  -1.692 -74.511 
 12.233   4.986 -66.347 
 -6.179  -3.277 -67.410 
-13.188   3.116 -68.114 
-14.140   1.489 -75.703 
-13.061  -9.446 -66.407 
 -6.973  -4.380 -74.981 
  2.921  -8.458 -64.947 
  1.115  11.840 -71.358 
 -1.739  12.296 -70.036 
  4.885   1.494 -61.031 
 15.764   8.313 -72.041 
 -8.704   1.285 -77.471 
-13.531  12.905 -65.519 
 -2.882   5.313 -71.924 
  0.918   8.443 -62.130 
 11.836  -4.954 -70.675 
 -6.660   5.874 -70.356 
  9.422  10.604 -72.124 
 13.324   7.308 -66.594 
 12.114   0.620 -72.448 
-13.977  -6.110 -67.267 
-13.675   5.812 -76.990 
 -5.225  -5.473 -69.086 
  8.070  -4.684 -64.976 
 10.229   7.688 -66.637 
 10.730  -3.484 -68.636 
 13.384  -3.679 -68.535 
 15.864   3.561 -68.644 
 -8.512   7.413 -74.686 
 10.905   2.902 -67.019 
 10.059  -7.921 -70.362 
 15.649   3.623 -72.650 
  0.525 -11.804 -65.599 
 -7.405  12.305 -63.995 
  0.996 -11.302 -68.602 
-15.340   6.160 -73.059 
 10.464   5.819 -73.156 
  3.471  11.924 -68.770 
  8.869   1.446 -74.176 
  2.231   6.183 -61.329 
  7.113  -0.317 -67.730 
 12.175  -2.017 -63.687 
-11.124  -9.418 -74.946 
-14.047  -9.080 -74.020 
 10.451  -4.889 -74.956 
 12.586  -7.301 -66.560 
 17.790  -5.532 -69.637 
  6.045  11.269 -72.689 
 16.849   9.035 -72.577 
-10.511   1.056 -62.459 
 -2.613   4.220 -63.321 
  9.672   6.167 -66.737 
-13.938  12.591 -68.674 
 -8.516 -11.287 -68.683 
  9.981  -1.212 -65.166 
  8.186  -4.795 -75.017 
-13.959  -8.112 -71.368 
  5.431 -10.439 -66.120 
-10.537   6.920 -62.332 
-13.294  12.365 -71.864 
  7.503  -5.588 -61.563 
-12.974  11.110 -69.626 
 -3.560  -5.581 -65.024 
  0.006  -9.788 -67.754 
 -4.114  -7.646 -68.222 
 16.939  -3.929 -70.191 
 13.176   7.152 -64.401 
  9.134   5.309 -66.249 
  7.338   7.270 -61.848 
 15.616  12.166 -67.364 
  4.000 -11.005 -69.899 
 -8.542   5.784 -68.522 
 -6.880   9.349 -67.554 
  5.309  11.715 -67.871 
-11.359  12.774 -63.999 
 -8.313   0.788 -63.813 
 12.951  -1.496 -72.073 
 12.767   0.673 -65.040 
 12.587   3.980 -64.218 
-10.913  -0.798 -77.037 
 10.554 -11.640 -70.398 
 12.191  10.936 -63.890 
 -6.087   4.291 -64.002 
  9.798   3.136 -61.993 
  1.035   8.350 -70.174 
  8.154  -7.900 -70.826 
 -7.798  -1.140 -63.999 
 -8.718   7.027 -61.458 
 -2.775   5.619 -73.203 
 -3.447   7.011 -68.805 
 -8.719   5.882 -64.793 
 10.323   3.182 -72.512 
 -9.787   2.207 -73.077 
 -7.017   0.009 -61.969 
-14.256 -12.671 -68.345 
 -3.702   8.595 -67.603 
-11.801 -11.672 -73.325 
  2.704  -3.667 -68.507 
  3.188  12.803 -63.370 
 -8.407   9.441 -68.612 
 -7.521   6.221 -63.806 
 -6.861   1.504 -75.713 
  8.576   4.100 -66.938 
  2.617  -5.743 -76.713 
 12.743  -8.258 -66.743 
 -7.079 -10.144 -57.852 
 -3.646  -9.602 -72.265 
  1.849   6.367 -69.966 
 -7.069   2.894 -68.879 
  6.165  -7.662 -71.109 
  4.073   3.789 -66.750 
 -6.116   0.439 -76.244 
  5.506  -1.383 -75.372 
 -4.289  -3.779 -68.838 
  8.165  10.103 -61.301 
-15.948  -7.883 -74.294 
 -0.890   4.492 -69.264 
-12.491  -7.319 -69.217 
 -2.512  -6.687 -67.181 
 13.884 -10.869 -69.701 
 11.518  -4.723 -64.778 
 -5.317  -0.379 -70.299 
  7.904   2.309 -69.038 
  6.267  -1.097 -75.053 
 -1.192  11.695 -75.482 
 -5.774 -11.601 -66.269 
 -5.914   5.053 -70.294 
 -2.877  -5.035 -74.863 
  9.809 -11.968 -65.578 
-10.258  -8.797 -63.880 
 -3.878  -9.613 -62.106 
 -8.006   2.444 -63.834 
-12.980  -3.348 -74.234 
  8.358   0.014 -73.642 
-10.749  12.262 -63.204 
  5.233  -4.220 -63.769 
 -4.812   7.524 -59.775 
-10.484  -2.142 -73.005 
 -1.230  10.573 -59.694 
-13.259  12.025 -72.605 
 -8.329  12.567 -59.084 
  5.771   6.529 -72.513 
  7.599  -6.771 -74.947 
 -3.464   7.810 -61.908 
 13.692 -11.768 -74.257 
  9.418   4.008 -63.543 
 14.666  10.863 -69.016 
 16.587  -4.383 -67.214 
  7.309   8.924 -65.309 
 12.070  -0.482 -70.898 
 -8.482  10.294 -70.965 
  0.150  10.323 -58.554 
  2.050   7.297 -76.678 
 -4.019  -4.744 -61.839 
  7.013   1.254 -61.752 
  7.914  11.794 -65.703 
 11.989  -0.847 -63.017 
  9.598  10.150 -63.717 
  0.303  -2.914 -68.316 
  8.751  -4.298 -62.038 
  2.250 -12.540 -68.572 
  5.114  11.451 -71.369 
 -0.703   0.126 -62.343 
-12.438   3.019 -77.537 
 -9.357 -12.446 -69.346 
 -9.707  -7.334 -66.731 
  8.460 -12.340 -70.891 
 -9.442  -9.296 -76.124 
  3.051 -10.071 -76.568 
  3.305 -10.105 -61.468 
 -7.407  -3.140 -74.425 
  9.963  -0.626 -61.159 
 16.299  -0.012 -74.504 
 -1.629   0.147 -72.020 
 14.679   5.934 -62.084 
 -6.856  -8.787 -71.826 
  9.306   7.758 -61.871 
 -1.178  -6.205 -62.597 
 12.517  -8.975 -65.982 
  0.856  -9.770 -74.301 
-12.159  -5.682 -74.247 
 -7.300  -0.834 -75.887 
 11.283  -1.206 -63.404 
 -3.175   3.691 -69.554 
  4.609   8.811 -77.203 
 -3.591   0.021 -67.945 
  5.083  -5.383 -61.948 
 14.244  -3.967 -64.720 
-12.182 -12.285 -64.325 
-10.781   4.603 -73.509 
 16.886  -7.757 -67.415 
 15.694   3.067 -68.802 
  6.498 -10.625 -73.698 
  4.662   1.546 -74.939 
 -3.773  -5.786 -73.307 
 13.693  -2.303 -63.221 
 -2.071   4.556 -69.434 
 15.686 -12.212 -72.633 
 -7.531   7.284 -60.305 
-15.677  -2.633 -71.340 
 -9.691  -0.726 -71.361 
 -1.351  12.815 -61.662 
 -0.905  -5.293 -68.692 
 12.895  -1.360 -75.532 
 11.246   5.436 -62.743 
 -5.560   9.350 -75.655 
-10.438 -11.066 -77.112 
 17.481 -10.165 -70.483 
 12.395  -5.160 -73.858 
 -3.920   7.927 -64.158 
  8.829 -11.218 -64.510 
-13.051  -5.085 -73.785 
 10.977  12.721 -63.648 
-12.939   4.689 -68.246 
  4.220 -11.666 -67.294 
 13.166   6.079 -70.718 
  6.292 -13.270 -62.884 
  2.996  -4.666 -67.238 
 11.333  -1.005 -72.779 
 -5.368   7.864 -62.760 
 12.153 -11.224 -69.183 
 -8.765  -1.000 -53.243 
 16.346  -2.852 -63.489 
 14.878  11.535 -61.799 
  3.315  11.394 -71.732 
-12.793   4.569 -76.082 
  8.525  -1.694 -70.221 
 -6.075  -4.729 -67.072 
  5.643 -11.034 -62.121 
  8.668   7.702 -62.763 
 -4.997 -12.012 -74.468 
  5.490   6.033 -73.929 
 13.393  -4.291 -66.725 
 11.472  -1.773 -68.180 
 -2.410 -10.067 -69.424 
 12.896 -11.633 -71.083 
-14.930  -0.167 -76.368 
  7.019  -3.680 -67.426 
  9.297   3.664 -67.203 
 17.470  11.226 -72.455 
  0.152   5.039 -59.186 
  1.545 -12.968 -65.372 
  0.792  12.012 -71.245 
  3.321   9.027 -62.656 
 11.499   8.467 -62.075 
 12.125  -9.069 -69.152 
  5.817   9.323 -63.951 
 12.696  13.180 -63.647 
 -8.570  -8.046 -66.067 
 -3.540   5.835 -77.817 
 15.310   2.148 -67.009 
-13.384  -0.828 -63.717 
-14.455 -12.088 -76.448 
 13.105  -7.585 -65.314 
  6.352  10.377 -65.246 
-12.783 -11.948 -77.156 
-12.603   7.877 -73.264 
 17.434  -6.258 -72.322 
 -9.114  -6.912 -70.188 
  2.875  -4.745 -67.813 
  4.396   1.505 -64.995 
  3.954   6.340 -69.218 
 -4.545  -1.356 -76.775 
 -6.753   8.382 -75.799 
-14.724  13.170 -69.138 
  0.810   3.367 -75.090 
-14.450  -9.138 -76.663 
  9.777  -1.242 -62.860 
-12.149   4.956 -66.297 
  1.391   5.316 -76.831 
 -5.607   8.286 -63.248 
 13.849  -8.117 -69.064 
 13.520   8.531 -67.969 
-14.181  -2.446 -70.707 
  0.944   6.457 -76.336 
 -2.096  11.312 -70.794 
 -3.830   3.962 -73.011 
 12.171  -2.930 -62.460 
 10.577   0.575 -69.458 
  4.099   6.921 -76.611 
-13.636   9.546 -73.046 
-13.137   4.813 -64.374 
  7.515 -10.114 -68.302 
 -7.604   4.438 -59.932 
 15.026   0.977 -65.722 
  0.895   9.708 -69.256 
  0.447  -6.658 -72.050 
 15.145   8.875 -72.558 
 -7.842   6.015 -62.028 
-15.343  10.374 -68.379 

 VERTICES 516 1032 
1 0 
1 1 
1 2 
1 3 
1 4 
1 5 
1 6 
1 7 
1 8 
1 9 
1 10 
1 11 
1 12 
1 13 
1 14 
1 15 
1 16 
1 17 
1 18 
1 19 
1 20 
1 21 
1 22 
1 23 
1 24 
1 25 
1 26 
1 27 
1 28 
1 29 
1 30 
1 31 
1 32 
1 33 
1 34 
1 35 
1 36 
1 37 
1 38 
1 39 
1 40 
1 41 
1 42 
1 43 
1 44 
1 45 
1 46 
1 47 
1 48 
1 49 
1 50 
1 51 
1 52 
1 53 
1 54 
1 55 
1 56 
1 57 
1 58 
1 59 
1 60 
1 61 
1 62 
1 63 
1 64 
1 65 
1 66 
1 67 
1 68 
1 69 
1 70 
1 71 
1 72 
1 73 
1 74 
1 75 
1 76 
1 77 
1 78 
1 79 
1 80 
1 81 
1 82 
1 83 
1 84 
1 85 
1 86 
1 87 
1 88 
1 89 
1 90 
1 91 
1 92 
1 93 
1 94 
1 95 
1 96 
1 97 
1 98 
1 99 
1 100 
1 101 
1 102 
1 103 
1 104 
1 105 
1 106 
1 107 
1 108 
1 109 
1 110 
1 111 
1 112 
1 113 
1 114 
1 115 
1 116 
1 117 
1 118 
1 119 
1 120 
1 121 
1 122 
1 123 
1 124 
1 125 
1 126 
1 127 
1 128 
1 129 
1 130 
1 131 
1 132 
1 133 
1 134 
1 135 
1 136 
1 137 
1 138 
1 139 
1 140 
1 141 
1 142 
1 143 
1 144 
1 145 
1 146 
1 147 
1 148 
1 149 
1 150 
1 151 
1 152 
1 153 
1 154 
1 155 
1 156 
1 157 
1 158 
1 159 
1 160 
1 161 
1 162 
1 163 
1 164 
1 165 
1 166 
1 167 
1 168 
1 169 
1 170 
1 171 
1 172 
1 173 
1 174 
1 175 
1 176 
1 177 
1 178 
1 179 
1 180 
1 181 
1 182 
1 183 
1 184 
1 185 
1 186 
1 187 
1 188 
1 189 
1 190 
1 191 
1 192 
1 193 
1 194 
1 195 
1 196 
1 197 
1 198 
1 199 
1 200 
1 201 
1 202 
1 203 
1 204 
1 205 
1 206 
1 207 
1 208 
1 209 
1 210 
1 211 
1 212 
1 213 
1 214 
1 215 
1 216 
1 217 
1 218 
1 219 
1 220 
1 221 
1 222 
1 223 
1 224 
1 225 
1 226 
1 227 
1 228 
1 229 
1 230 
1 231 
1 232 
1 233 
1 234 
1 235 
1 236 
1 237 
1 238 
1 239 
1 240 
1 241 
1 242 
1 243 
1 244 
1 245 
1 246 
1 247 
1 248 
1 249 
1 250 
1 251 
1 252 
1 253 
1 254 
1 255 
1 256 
1 257 
1 258 
1 259 
1 260 
1 261 
1 262 
1 263 
1 264 
1 265 
1 266 
1 267 
1 268 
1 269 
1 270 
1 271 
1 272 
1 273 
1 274 
1 275 
1 276 
1 277 
1 278 
1 279 
1 280 
1 281 
1 282 
1 283 
1 284 
1 285 
1 286 
1 287 
1 288 
1 289 
1 290 
1 291 
1 292 
1 293 
1 294 
1 295 
1 296 
1 297 
1 298 
1 299 
1 300 
1 301 
1 302 
1 303 
1 304 
1 305 
1 306 
1 307 
1 308 
1 309 
1 310 
1 311 
1 312 
1 313 
1 314 
1 315 
1 316 
1 317 
1 318 
1 319 
1 320 
1 321 
1 322 
1 323 
1 324 
1 325 
1 326 
1 327 
1 328 
1 329 
1 330 
1 331 
1 332 
1 333 
1 334 
1 335 
1 336 
1 337 
1 338 
1 339 
1 340 
1 341 
1 342 
1 343 
1 344 
1 345 
1 346 
1 347 
1 348 
1 349 
1 350 
1 351 
1 352 
1 353 
1 354 
1 355 
1 356 
1 357 
1 358 
1 359 
1 360 
1 361 
1 362 
1 363 
1 364 
1 365 
1 366 
1 367 
1 368 
1 369 
1 370 
1 371 
1 372 
1 373 
1 374 
1 375 
1 376 
1 377 
1 378 
1 379 
1 380 
1 381 
1 382 
1 383 
1 384 
1 385 
1 386 
1 387 
1 388 
1 389 
1 390 
1 391 
1 392 
1 393 
1 394 
1 395 
1 396 
1 397 
1 398 
1 399 
1 400 
1 401 
1 402 
1 403 
1 404 
1 405 
1 406 
1 407 
1 408 
1 409 
1 410 
1 411 
1 412 
1 413 
1 414 
1 415 
1 416 
1 417 
1 418 
1 419 
1 420 
1 421 
1 422 
1 423 
1 424 
1 425 
1 426 
1 427 
1 428 
1 429 
1 430 
1 431 
1 432 
1 433 
1 434 
1 435 
1 436 
1 437 
1 438 
1 439 
1 440 
1 441 
1 442 
1 443 
1 444 
1 445 
1 446 
1 447 
1 448 
1 449 
1 450 
1 451 
1 452 
1 453 
1 454 
1 455 
1 456 
1 457 
1 458 
1 459 
1 460 
1 461 
1 462 
1 463 
1 464 
1 465 
1 466 
1 467 
1 468 
1 469 
1 470 
1 471 
1 472 
1 473 
1 474 
1 475 
1 476 
1 477 
1 478 
1 479 
1 480 
1 481 
1 482 
1 483 
1 484 
1 485 
1 486 
1 487 
1 488 
1 489 
1 490 
1 491 
1 492 
1 493 
1 494 
1 495 
1 496 
1 497 
1 498 
1 499 
1 500 
1 501 
1 502 
1 503 
1 504 
1 505 
1 506 
1 507 
1 508 
1 509 
1 510 
1 511 
1 512 
1 513 
1 514 
1 515 
POINT_DATA 516 
SCALARS MeanU double 1 
LOOKUP_TABLE default
0.10460 
0.17112 
0.10280 
0.14391 
0.14062 
0.16157 
0.09278 
0.13967 
0.13105 
0.16890 
0.13428 
0.16853 
0.13251 
0.21936 
0.16891 
0.16526 
0.15369 
0.16999 
0.10201 
0.10977 
0.09417 
0.08823 
0.14125 
0.06467 
0.10838 
0.07242 
0.19903 
0.13634 
0.13111 
0.12580 
0.07332 
0.10464 
0.11670 
0.08934 
0.13507 
0.08020 
0.15678 
0.12459 
0.11992 
0.19355 
0.13285 
0.19139 
0.20539 
0.23729 
0.12671 
0.10859 
0.11313 
0.09369 
0.08742 
0.09462 
0.11821 
0.18850 
0.15553 
0.08307 
0.14463 
0.09987 
0.14870 
0.09870 
0.22757 
0.10045 
0.14211 
0.10081 
0.14807 
0.14916 
0.13086 
0.15595 
0.10139 
0.13270 
0.07587 
0.10596 
0.10552 
0.07998 
0.05451 
0.08890 
0.11879 
0.20451 
0.12125 
0.15404 
0.16222 
0.21197 
0.10732 
0.07843 
0.12541 
0.12389 
0.12503 
0.20607 
0.12710 
0.11736 
0.17242 
0.09017 
0.29756 
0.13239 
0.10776 
0.10066 
0.08220 
0.07602 
0.15616 
0.17445 
0.15617 
0.09830 
0.20519 
0.11409 
0.09951 
0.28546 
0.06069 
0.15338 
0.32029 
0.14381 
0.11672 
0.11328 
0.17458 
0.11652 
0.12527 
0.15754 
0.11779 
0.21038 
0.09001 
0.16546 
0.09012 
0.17642 
0.13417 
0.15003 
0.15950 
0.20490 
0.07739 
0.09170 
0.07619 
0.07748 
0.13959 
0.12550 
0.07473 
0.20579 
0.11634 
0.10692 
0.13350 
0.08359 
0.13316 
0.20814 
0.12184 
0.14602 
0.17207 
0.15418 
0.11094 
0.12210 
0.13164 
0.16399 
0.20020 
0.11203 
0.16359 
0.18001 
0.16358 
0.14561 
0.15444 
0.15527 
0.18204 
0.12814 
0.13580 
0.13385 
0.13832 
0.15388 
0.09965 
0.16464 
0.08086 
0.11213 
0.12566 
0.24494 
0.07098 
0.05916 
0.27157 
0.11837 
0.12108 
0.24019 
0.13550 
0.10913 
0.09676 
0.09262 
0.14337 
0.13137 
0.13099 
0.16582 
0.10961 
0.20675 
0.11160 
0.30683 
0.16088 
0.16770 
0.08543 
0.20395 
0.10183 
0.24679 
0.11092 
0.10210 
0.13004 
0.09341 
0.13326 
0.12386 
0.13702 
0.10836 
0.14351 
0.03261 
0.11815 
0.11483 
0.10930 
0.10258 
0.10014 
0.21080 
0.09697 
0.07849 
0.16026 
0.19303 
0.17951 
0.17705 
0.32635 
0.11559 
0.05062 
0.16641 
0.12399 
0.08226 
0.11487 
0.19529 
0.06584 
0.17099 
0.28318 
0.03979 
0.16111 
0.16254 
0.14604 
0.18950 
0.24896 
0.11832 
0.11175 
0.14722 
0.17014 
0.10989 
0.07483 
0.17412 
0.11281 
0.08507 
0.06708 
0.16250 
0.07248 
0.09558 
0.16159 
0.15786 
0.10079 
0.09538 
0.19401 
0.06869 
0.20772 
0.16304 
0.10124 
0.16414 
0.06018 
0.07855 
0.09646 
0.12110 
0.04031 
0.09357 
0.08692 
0.17093 
0.09354 
0.02401 
0.12563 
0.12800 
0.18092 
0.11609 
0.27302 
0.17044 
0.14901 
0.08419 
0.14751 
0.12989 
0.09532 
0.04986 
0.15871 
0.10725 
0.09443 
0.12452 
0.16738 
0.13215 
0.12656 
0.11451 
0.11589 
0.18323 
0.14589 
0.06428 
0.19204 
0.18398 
0.12520 
0.11384 
0.11363 
0.06861 
0.17243 
0.14883 
0.14399 
0.04082 
0.11208 
0.16279 
0.14445 
0.08897 
0.11686 
0.19525 
0.07140 
0.13800 
0.17681 
0.14366 
0.07174 
0.16413 
0.06522 
0.14222 
0.10114 
0.12704 
0.24499 
0.10073 
0.15884 
0.11477 
0.08091 
0.16768 
0.12608 
0.10830 
0.08851 
0.09966 
0.14791 
0.09852 
0.22668 
0.14532 
0.10827 
0.12554 
0.16701 
0.04415 
0.11843 
0.07884 
0.15599 
0.09463 
0.14887 
0.18507 
0.12859 
0.13147 
0.17630 
0.22067 
0.11854 
0.11080 
0.13406 
0.10782 
0.18411 
0.10158 
0.13704 
0.17582 
0.26392 
0.12130 
0.15922 
0.14432 
0.14611 
0.12435 
0.22592 
0.24655 
0.12111 
0.07574 
0.17785 
0.25981 
0.08063 
0.24442 
0.04119 
0.22405 
0.10324 
0.12297 
0.09498 
0.19681 
0.15456 
0.15473 
0.15441 
0.17036 
0.09782 
0.10167 
0.06157 
0.11677 
0.06374 
0.08731 
0.10996 
0.29702 
0.13964 
0.09828 
0.09953 
0.09703 
0.09726 
0.15895 
0.07808 
0.04658 
0.19494 
0.16558 
0.12189 
0.10275 
0.14094 
0.13338 
0.07274 
0.17271 
0.22806 
0.11697 
0.07621 
0.16710 
0.21805 
0.14470 
0.12944 
0.23262 
0.12989 
0.10753 
0.13548 
0.12594 
0.12383 
0.14101 
0.13311 
0.11982 
0.16362 
0.09147 
0.19385 
0.15223 
0.11683 
0.08556 
0.20152 
0.08044 
0.07974 
0.16452 
0.15868 
0.13482 
0.07585 
0.15670 
0.16180 
0.16800 
0.25008 
0.13743 
0.14440 
0.06558 
0.17390 
0.10083 
0.16002 
0.13107 
0.14026 
0.11601 
0.11479 
0.20079 
0.12036 
0.12052 
0.08269 
0.19300 
0.10015 
0.12518 
0.17021 
0.26039 
0.15014 
0.17729 
0.14097 
0.13695 
0.20896 
0.15165 
0.14420 
0.13346 
0.13330 
0.13660 
0.08739 
0.07933 
0.16644 
0.14142 
0.08936 
0.34307 
0.17544 
0.12250 
0.11801 
0.05888 
0.11045 
0.06240 
0.12309 
0.15117 
0.09690 
0.04592 
0.12542 
0.12299 
0.09802 
0.27261 
0.08941 
0.11501 
0.10919 
0.05387 
0.06504 
0.04979 
0.04678 
0.14611 
0.08408 
0.15025 
0.11664 
0.10512 
0.12309 
0.19459 
0.07976 
0.09923 
0.09698 
0.11449 
0.14951 
0.08086 
0.10467 
0.17935 
0.11274 
0.14511 
0.16284 
0.12819 
0.07170 
0.12388 
0.04057 
0.12918 
0.17638 
0.06177 
0.19405 
0.09556 
0.18003 
0.15144 
0.09125 
0.09923 

 VECTORS Umean float 
0.02600 0.09150 -0.04350 
0.08600 0.13850 -0.05200 
0.01750 0.09950 0.01900 
0.09450 0.09900 -0.04450 
0.05000 0.08350 -0.10150 
0.09450 0.08350 -0.10100 
0.01650 0.08000 -0.04400 
0.01250 0.11200 -0.08250 
0.05850 0.11700 -0.00800 
0.09350 0.12500 -0.06450 
0.00800 0.13150 -0.02600 
0.09450 0.12550 -0.06100 
0.03100 0.12750 0.01850 
0.11200 0.11500 -0.14950 
0.07000 0.10200 -0.11500 
0.13200 0.02400 -0.09650 
0.07500 0.11650 -0.06650 
0.06600 0.11300 -0.10850 
-0.00000 0.09950 0.02250 
0.02250 0.10600 -0.01750 
-0.03900 0.04150 -0.07500 
0.00050 -0.07200 0.05100 
0.10200 0.05750 -0.07900 
0.03000 0.05650 0.00950 
0.05900 0.01600 -0.08950 
-0.02700 0.05400 -0.04000 
-0.05000 0.18550 0.05200 
0.02550 0.12650 -0.04400 
0.01500 0.12600 0.03300 
0.03900 0.11800 -0.01950 
0.05750 0.04200 0.01750 
0.00700 0.09800 0.03600 
0.02000 0.11200 0.02600 
0.01300 0.06250 0.06250 
0.01700 0.12850 -0.03800 
0.02150 0.07450 0.02050 
0.08100 0.12750 -0.04200 
0.02150 0.11900 -0.03000 
-0.01150 0.11800 0.01800 
0.07650 0.09700 -0.14900 
0.07200 0.03350 -0.10650 
0.14450 0.10450 -0.06950 
0.08600 0.15900 -0.09750 
0.11550 0.06600 -0.19650 
0.05250 0.09350 -0.06750 
0.06800 0.01900 -0.08250 
0.05700 0.09250 -0.03150 
-0.03250 0.07850 0.03950 
0.03500 0.06450 0.04750 
0.06800 0.06200 0.02200 
0.08350 0.03500 -0.07600 
0.04600 0.11000 -0.14600 
0.14500 0.02850 -0.04850 
-0.01250 0.08200 -0.00450 
0.11500 0.05600 -0.06750 
0.01100 0.09250 -0.03600 
0.10850 0.10050 -0.01550 
0.03350 0.09200 -0.01250 
0.09250 0.16800 -0.12250 
-0.01550 0.09700 0.02100 
0.08000 0.08000 -0.08600 
0.06800 0.05850 -0.04600 
0.05100 0.04650 -0.13100 
0.07400 0.09900 -0.08350 
0.00300 0.12150 0.04850 
0.04550 0.06450 -0.13450 
0.01050 0.09000 0.04550 
0.06500 0.11200 -0.02900 
0.01500 0.04950 -0.05550 
0.02700 0.10150 -0.01400 
0.04650 0.05850 -0.07450 
0.01850 0.07750 0.00700 
-0.00500 0.04650 0.02800 
0.02900 0.08150 0.02050 
0.07300 0.01150 -0.09300 
0.09800 0.14300 -0.10850 
0.04850 0.10850 -0.02400 
0.04700 0.13050 0.06700 
0.12250 0.08050 -0.06950 
0.05700 0.17800 -0.10000 
-0.01550 0.10400 0.02150 
0.00650 0.07800 -0.00500 
-0.01500 0.12450 -0.00150 
0.09150 0.06800 -0.04850 
0.07700 0.03650 -0.09150 
0.00750 0.07700 0.19100 
0.05500 0.10600 -0.04350 
0.01400 0.07150 -0.09200 
0.00700 0.15850 0.06750 
0.06000 0.05050 -0.04450 
0.10700 0.08900 -0.26300 
-0.04500 0.12450 -0.00150 
0.04100 0.09950 -0.00550 
0.03450 0.07350 -0.05950 
0.05000 0.04250 -0.04950 
0.05200 0.04950 -0.02500 
-0.05950 0.14400 -0.01050 
0.15500 0.06550 -0.04600 
0.03100 0.15200 -0.01800 
0.04900 0.08500 0.00600 
-0.01750 0.03150 -0.20200 
0.05500 0.03400 -0.09400 
-0.02550 0.09600 0.00600 
0.12950 0.07200 -0.24400 
0.03900 0.04450 -0.01350 
0.04350 0.05600 -0.13600 
0.05950 0.23350 -0.21100 
0.06250 0.11750 -0.05450 
0.00050 0.10100 0.05850 
0.08400 0.06400 -0.04100 
0.12350 -0.12200 0.01850 
0.10350 0.00150 -0.05350 
0.06150 0.10700 -0.02150 
0.10850 0.09750 -0.05950 
0.11500 0.01750 -0.01850 
0.17550 0.11400 -0.02150 
0.03500 0.04600 -0.06900 
0.03400 0.11350 -0.11550 
0.02050 0.05950 -0.06450 
0.09550 0.12050 -0.08650 
0.04300 0.03200 -0.12300 
0.10800 -0.01150 -0.10350 
0.05750 0.09850 -0.11150 
0.08100 0.12000 -0.14500 
0.04200 0.05600 -0.03300 
0.06150 0.06800 0.00150 
-0.00300 0.07600 -0.00450 
0.07550 0.01100 0.01350 
0.00450 0.07900 0.11500 
0.02650 0.12250 -0.00650 
-0.01650 0.06750 -0.02750 
0.01550 0.16500 -0.12200 
0.10550 0.01700 -0.04600 
0.06700 0.07900 -0.02650 
-0.03050 0.12850 -0.01950 
-0.00350 0.08250 -0.01300 
0.04650 0.12300 -0.02100 
-0.00650 0.17750 -0.10850 
0.08600 0.05900 -0.06300 
0.04550 0.13600 -0.02750 
0.01500 0.14650 -0.08900 
0.01750 0.06650 -0.13800 
0.00700 0.11050 -0.00700 
0.00500 0.12200 0.00050 
0.02450 0.12700 -0.02450 
0.03650 0.15950 -0.01100 
0.06150 -0.02400 -0.18900 
0.05200 0.08600 -0.04950 
0.01400 0.11500 0.11550 
0.08900 0.03500 -0.15250 
0.14950 0.02500 -0.06150 
0.01600 0.13850 -0.04200 
0.09100 0.04200 -0.11750 
-0.01050 0.11250 -0.10650 
0.10900 0.13750 -0.04850 
0.00150 0.12700 0.01700 
0.00650 0.13350 0.02400 
0.03750 0.09850 -0.08250 
0.08250 0.07750 -0.07950 
0.11400 0.06950 -0.07650 
0.01800 0.00150 -0.09800 
0.06450 0.03850 -0.14650 
0.02000 0.01150 -0.07750 
0.01850 0.11050 0.00450 
0.05300 -0.01800 -0.11250 
0.01300 0.16000 -0.18500 
0.04500 0.05150 0.01900 
0.01700 0.05450 0.01550 
0.13050 -0.11600 -0.20800 
0.02200 -0.06850 -0.09400 
0.04450 0.07500 -0.08400 
0.11800 0.06300 -0.19950 
0.11400 -0.04200 -0.06000 
0.07700 0.05900 -0.05000 
-0.01100 0.09600 0.00500 
0.00800 0.06550 -0.06500 
0.07800 -0.00850 -0.12000 
-0.00650 0.09050 0.09500 
0.07800 0.01900 -0.10350 
0.02750 0.13750 -0.08850 
0.06000 -0.00650 -0.09150 
0.15500 0.03950 -0.13100 
0.01150 0.11100 -0.00100 
0.10950 0.06350 -0.27950 
0.04150 0.14800 -0.04750 
-0.03550 0.16350 -0.01150 
0.07100 -0.03100 -0.03600 
0.05700 0.03850 -0.19200 
0.05250 0.07150 -0.05000 
0.07450 0.07350 -0.22350 
0.02100 0.09250 -0.05750 
0.07950 0.06350 0.00850 
0.09650 0.08350 -0.02500 
0.06050 0.06500 -0.02900 
0.04100 -0.02400 -0.12450 
0.06850 0.05050 -0.09000 
0.07900 0.11150 -0.01000 
-0.01350 0.07400 -0.07800 
-0.01650 0.14250 -0.00400 
0.01150 0.00950 -0.02900 
0.01800 0.11650 -0.00800 
0.07400 0.07000 -0.05300 
-0.03350 0.08500 -0.06000 
0.04400 0.08950 0.02400 
0.00400 0.09150 0.04050 
0.06000 0.09750 -0.17700 
0.06450 -0.04400 0.05750 
0.06150 0.02300 -0.04300 
0.10250 0.09150 -0.08250 
0.08500 0.13750 -0.10550 
0.14250 0.08500 -0.06850 
0.06050 0.14750 -0.07700 
0.08000 0.10200 -0.29950 
-0.04400 0.09850 0.04150 
-0.04200 0.02750 -0.00650 
0.10250 0.01250 -0.13050 
0.06750 0.07600 -0.07100 
-0.05050 0.05650 0.03200 
0.05600 0.02350 -0.09750 
0.09650 0.15600 -0.06700 
-0.04300 0.04650 -0.01800 
-0.03650 0.07650 -0.14850 
0.09350 0.21450 -0.15950 
-0.02500 -0.02650 -0.01600 
0.12100 0.08750 -0.06050 
0.05200 0.07500 -0.13450 
0.03900 0.12800 -0.05850 
0.07600 0.06850 -0.15950 
0.05650 0.23400 -0.06350 
-0.02050 0.10300 -0.05450 
-0.00400 0.03200 -0.10700 
0.06750 0.11800 -0.05650 
0.11600 0.02200 -0.12250 
-0.00800 0.10850 -0.01550 
0.01000 0.07050 -0.02300 
0.13100 0.09450 -0.06500 
0.04900 0.08050 -0.06200 
0.00650 0.08300 0.01750 
-0.02100 0.03750 0.05150 
0.06500 0.14400 0.03800 
-0.02150 0.06900 -0.00550 
0.06650 -0.01500 -0.06700 
0.09100 0.13000 -0.03050 
0.03650 -0.05850 -0.14200 
0.09600 0.02450 0.01850 
0.08200 0.03800 -0.03050 
0.03950 0.01300 -0.18950 
-0.03250 0.05850 0.01550 
0.11200 0.02600 -0.17300 
0.05950 0.11150 -0.10300 
0.07200 0.06800 -0.02100 
0.09550 0.08900 -0.09950 
0.05900 -0.00550 0.01050 
0.06000 0.04900 -0.01300 
0.04100 0.06900 -0.05350 
0.02750 0.10750 -0.04850 
0.00400 0.01550 -0.03700 
-0.06500 -0.06050 -0.02950 
0.07100 0.03150 -0.03900 
-0.00200 0.16950 -0.02200 
0.07000 0.04700 -0.04050 
-0.01950 0.01400 -0.00000 
0.04650 0.06100 -0.09950 
-0.07850 0.09150 0.04300 
0.10750 0.09350 -0.11150 
0.03400 0.11100 0.00050 
0.21250 0.14650 -0.08900 
0.08200 0.14450 -0.03800 
0.05250 0.04350 -0.13250 
0.07050 0.04600 -0.00100 
0.11300 0.05800 -0.07500 
0.10350 0.01750 -0.07650 
0.08800 0.03550 0.00900 
-0.01950 0.00900 -0.04500 
0.06450 0.11250 -0.09150 
-0.00200 0.06850 -0.08250 
-0.00600 0.08750 -0.03500 
0.05900 0.07500 -0.08000 
-0.07850 0.13100 -0.06850 
0.07000 0.00450 -0.11200 
0.04000 0.10750 -0.05350 
0.06650 0.03350 -0.08700 
0.10750 0.04200 -0.01050 
0.14150 0.04700 -0.10650 
-0.05350 0.13000 0.03900 
0.00300 0.05650 0.03050 
0.11800 0.04050 -0.14600 
0.03600 0.17050 0.05900 
0.06100 0.01350 -0.10850 
0.07650 0.03650 -0.07600 
0.02950 -0.06350 -0.08950 
0.06550 0.01750 -0.01050 
0.05900 0.11850 -0.11050 
-0.01300 0.13350 -0.06450 
0.00950 0.09000 -0.11200 
0.03550 -0.01450 0.01400 
0.08150 0.03600 -0.06800 
0.05800 0.14400 -0.04900 
0.01050 0.09000 0.11250 
-0.04650 0.06900 0.03150 
0.02800 0.03150 0.10900 
-0.02450 0.08200 -0.17550 
0.02150 0.06250 0.02700 
0.02350 0.13550 -0.01150 
0.03350 0.16450 -0.05550 
0.03800 0.12650 -0.05650 
-0.00650 0.03550 0.06200 
0.08850 0.04100 0.13200 
0.01250 0.06400 -0.00100 
0.06400 0.11950 -0.04300 
-0.01450 0.09450 0.03300 
0.00400 0.05050 -0.11650 
0.02550 0.07600 -0.23150 
-0.04400 0.09050 0.00450 
0.06900 0.14300 -0.00450 
0.01000 0.08800 0.07300 
0.01200 0.08000 0.00150 
0.04300 0.05200 -0.15350 
-0.00250 0.08050 -0.09700 
-0.01550 0.05150 -0.09400 
0.01950 0.01200 -0.08550 
0.04100 0.08950 0.01550 
0.10050 0.10850 0.00200 
0.08350 0.00550 -0.05200 
0.03500 0.14100 0.17400 
0.00550 0.08250 0.11950 
-0.01700 0.09700 -0.04500 
0.07100 0.07850 -0.06750 
-0.02200 0.16500 -0.01350 
0.02400 0.03700 -0.00200 
0.09450 0.03450 -0.06250 
-0.00300 -0.02250 -0.07550 
0.11400 0.09650 -0.04500 
-0.01250 0.09350 0.00750 
0.03400 0.13450 -0.05400 
0.03450 0.08450 -0.16100 