# vtk DataFile Version 2.0 
Xm, Ym, Zm, Uvecs, timestep 10119 
ASCII 
 
DATASET POLYDATA POINTS 511 float 
  6.100   1.877 -72.067 
  0.272   7.759 -74.422 
 -1.001   5.684 -71.779 
  1.273  10.492 -69.587 
  1.598  -6.416 -70.426 
  5.277  -3.333 -72.817 
  0.021   7.627 -68.233 
 -7.383   1.587 -68.093 
  5.277   1.223 -71.828 
  5.176   2.035 -71.106 
 -1.328  10.461 -68.575 
 -1.164   4.476 -70.346 
  6.839  -3.547 -69.764 
-14.476  -4.271 -70.701 
 -2.866   7.420 -68.819 
  4.923  -0.383 -70.130 
 -0.273   9.445 -68.828 
  3.644  -6.667 -67.059 
 -8.665   8.782 -69.463 
 -3.400  -8.954 -60.758 
-10.712   6.040 -68.291 
 -9.339  12.054 -70.837 
  9.922   5.329 -72.243 
  1.329  11.005 -67.353 
  8.636  -8.230 -68.054 
  3.577  10.333 -71.630 
-15.964  -8.617 -74.273 
  0.652   8.137 -68.279 
-13.484  10.285 -72.126 
  1.028  -4.677 -69.224 
  6.939  -0.873 -72.137 
  9.806  -1.343 -67.438 
  8.791   5.276 -69.044 
 -7.163  11.464 -68.779 
  7.855  -1.599 -70.019 
 -3.965   1.156 -67.219 
 -0.907  12.275 -70.444 
 -9.759   1.557 -72.292 
  6.628   5.603 -72.293 
 -2.868  -0.917 -67.602 
 12.948  -1.938 -72.274 
  4.242   6.330 -66.754 
 -0.508   3.212 -66.036 
  1.286   0.912 -68.680 
  9.357  11.052 -71.064 
  7.317   1.563 -74.258 
 -4.853   3.882 -64.267 
 12.537  -1.808 -68.449 
  1.640   8.094 -71.843 
 -0.593  12.280 -65.748 
 -6.534   4.153 -69.903 
-14.222  -8.236 -74.150 
 12.107  10.331 -71.222 
  6.789   5.099 -67.507 
  9.564  -2.913 -69.356 
  5.128  -7.158 -71.442 
-15.215  -6.378 -71.073 
-12.894  -2.163 -67.481 
  1.438   9.502 -66.338 
 -1.614 -10.320 -70.079 
  9.992  -0.715 -68.232 
 10.701  10.346 -68.837 
  1.575  11.849 -65.329 
  2.423  12.552 -70.551 
 -7.246  -5.346 -67.850 
  5.547  10.711 -73.094 
  3.686  -9.415 -68.401 
  7.407   5.412 -66.362 
  2.974   0.371 -70.353 
 -0.022 -12.088 -67.784 
  1.692   8.034 -67.715 
  0.537  -9.554 -66.125 
  4.997 -10.442 -69.957 
  2.348  -5.311 -74.471 
  0.031   5.908 -76.737 
 -1.177  11.746 -62.433 
  6.334   5.846 -63.666 
  3.927  11.178 -68.960 
  5.886  -1.869 -74.536 
 -1.591  -2.351 -67.204 
 -8.208   2.223 -74.630 
  9.521  -2.205 -64.855 
  7.002   9.953 -70.030 
  9.092   7.070 -68.636 
 -1.359  12.113 -67.517 
 -6.051   0.182 -64.429 
  4.020   1.307 -64.647 
 -2.121  -1.208 -71.935 
-13.374  11.500 -73.006 
 -3.007  -6.282 -65.810 
 -6.251  -1.220 -66.792 
-10.360  -5.553 -67.311 
 -7.470   1.583 -64.604 
 -4.701   2.311 -74.168 
  0.080   1.285 -64.061 
 16.547   0.232 -67.740 
 -6.828   7.748 -75.636 
 -2.594   3.616 -62.949 
-13.005  -2.657 -71.636 
 -0.536   5.433 -66.668 
  5.502 -10.977 -72.177 
 -5.211 -11.662 -70.266 
  2.130   6.564 -72.481 
 -6.959  -8.931 -69.672 
-14.211  -3.405 -70.665 
  0.340  -7.732 -65.835 
-15.664  10.194 -73.179 
 -6.186  -0.929 -69.358 
  5.668  -3.875 -67.296 
-13.396  11.349 -68.319 
  0.720   6.457 -63.354 
 -1.249  12.450 -64.944 
 15.424   3.189 -68.499 
 -0.084  -3.205 -67.543 
 -3.434   6.760 -61.944 
-10.004  11.799 -70.802 
 -7.316   4.864 -70.147 
-15.680   9.235 -73.340 
 -1.550  -4.295 -62.482 
 16.207   8.108 -68.287 
 -0.915  -9.346 -69.087 
  2.800   5.549 -69.523 
 -3.096 -10.698 -68.637 
  5.810   1.559 -66.744 
-10.275   7.912 -64.537 
 -9.888  12.915 -65.784 
 -1.206   7.471 -64.696 
  3.255   5.433 -66.737 
  4.732 -10.500 -66.125 
  8.157   5.031 -65.541 
 -1.625  10.307 -66.032 
 -2.286  -6.268 -67.984 
 -1.802 -12.582 -67.305 
 -6.941  -5.164 -65.659 
 -0.625 -10.059 -67.124 
 -9.845  -5.516 -77.492 
 -8.138 -12.368 -67.897 
  4.136 -12.941 -66.582 
  2.462   3.724 -62.612 
 14.140   3.045 -67.691 
 -3.631   7.007 -64.394 
-12.427  -6.146 -73.149 
 -9.930  -2.937 -72.996 
 10.207  -6.012 -65.017 
 -0.534   6.848 -69.296 
 -1.221   4.048 -73.831 
 10.660  -1.507 -72.552 
 -2.996   8.906 -63.403 
 -8.864   7.007 -74.398 
-12.995  -8.441 -66.572 
 -3.295  -5.758 -69.197 
 -4.525  11.767 -74.232 
-10.066  -8.649 -68.177 
  5.776  -8.336 -69.822 
  0.072 -10.294 -65.398 
 -6.615  -0.209 -75.584 
  0.577   9.304 -63.520 
  8.930   2.789 -63.271 
 -0.057 -11.187 -65.404 
 -2.233  -7.199 -66.319 
 -3.910  -7.811 -67.561 
-15.081   6.023 -72.788 
 -8.236  -7.649 -67.483 
-12.761  -7.687 -68.324 
 -4.553  11.125 -63.927 
  6.885  12.607 -69.742 
 -8.221  -5.651 -65.483 
  6.684  -1.779 -65.947 
  9.556  -2.330 -71.219 
-10.458   1.079 -72.959 
  4.513   8.451 -64.723 
  5.780  -5.714 -63.070 
 -8.555  -7.978 -67.977 
  6.178  11.139 -72.234 
 12.090  -6.448 -65.897 
 -3.611   4.830 -62.150 
 14.071   7.956 -73.913 
 12.930  -3.699 -68.742 
  9.075   6.746 -61.358 
-10.459  -8.068 -66.719 
  1.101  -4.135 -70.638 
-14.089  12.324 -68.952 
  1.225   4.527 -76.558 
  3.322  -9.265 -64.364 
 -5.398  -0.136 -70.111 
-13.380  -1.293 -65.708 
 12.752   6.294 -68.234 
  0.332 -11.664 -68.310 
  3.314  12.563 -70.093 
 12.607   0.768 -67.078 
 -5.394   3.079 -63.544 
 -8.315   2.971 -63.926 
 -3.471 -12.466 -72.549 
-10.178   5.909 -62.597 
  4.761   1.907 -62.422 
  1.931  -3.820 -68.033 
 10.815  -5.769 -64.429 
  8.038  -2.531 -68.635 
-10.794  -3.404 -72.555 
 -7.849   1.941 -63.587 
 -8.026  -5.747 -69.596 
 -7.342   0.935 -75.368 
-11.180  -5.633 -65.831 
 10.043  -4.161 -67.862 
  9.933  -8.169 -70.094 
 14.031  -4.686 -64.755 
 16.197   8.235 -71.682 
-12.642   7.614 -72.892 
 -2.132  -4.274 -61.957 
  1.228  -4.536 -66.240 
 -8.305   6.364 -61.161 
 10.735   6.277 -62.740 
-11.765   6.139 -70.959 
  1.581 -12.692 -68.430 
 11.682   7.341 -70.513 
 15.175   7.804 -71.605 
 -8.365   5.082 -68.743 
  5.660 -11.965 -68.143 
 -5.563  -9.766 -75.386 
  5.349   9.142 -74.358 
  4.800 -11.764 -68.156 
-14.540  -6.588 -71.782 
-14.299   3.984 -69.040 
  0.014  -9.802 -68.217 
  2.655   0.234 -64.014 
  8.091   0.726 -73.410 
 10.087   4.564 -71.236 
 -5.575 -10.904 -66.100 
 -8.930   8.683 -75.261 
-15.134   8.330 -70.185 
  6.960  10.270 -76.118 
 11.201  -5.067 -70.013 
 -4.536 -10.365 -71.947 
  5.699  -1.228 -66.891 
 13.637   5.052 -63.670 
-13.163   8.180 -65.646 
 15.650   5.389 -71.511 
 -8.785   7.777 -65.848 
-11.278  -7.765 -61.796 
 -0.088 -11.964 -65.449 
 -5.454   7.172 -63.540 
 -9.458  -3.082 -75.159 
-10.948  -7.419 -67.545 
  9.457  -1.945 -62.586 
 -8.585   9.930 -71.198 
-13.193   9.752 -70.015 
 -1.307  -7.476 -69.584 
 -4.098  -0.831 -67.358 
 -8.570  -7.601 -75.159 
  4.016   6.759 -64.097 
 12.749  -4.391 -66.855 
  9.847 -11.909 -65.348 
  1.859  -8.627 -63.935 
-15.278  -9.634 -71.124 
  7.120 -10.795 -68.101 
 -0.414  12.328 -72.687 
-14.040   0.769 -75.470 
 15.282   1.464 -66.960 
  9.597   7.123 -66.502 
 -7.742  -1.434 -75.046 
  2.722   2.798 -64.451 
  7.575  -5.657 -64.493 
  9.130   5.534 -66.316 
 15.203  12.259 -67.543 
-13.862   9.037 -68.633 
  9.530   9.322 -63.691 
-13.335  11.916 -72.089 
 10.058 -12.794 -67.069 
 12.027  -1.789 -63.120 
  7.099  -1.399 -60.221 
 14.214   0.710 -68.513 
  6.527  -5.736 -61.106 
-12.723   2.217 -77.320 
  1.958   5.291 -61.539 
 -9.845  -0.327 -66.699 
 -6.912  -9.187 -77.468 
 -8.040  -4.337 -73.503 
  9.619  -5.121 -70.029 
-11.852  -6.502 -65.352 
 -0.491   1.231 -76.976 
  7.632 -10.327 -67.063 
 -3.442   1.142 -70.826 
 -0.433   6.789 -67.505 
  2.736  10.965 -76.053 
-12.529   4.188 -68.445 
  0.613   2.470 -74.413 
-12.908   3.743 -75.576 
 11.678  10.730 -64.364 
-12.486   4.051 -66.614 
 -6.444  -2.943 -63.961 
 -2.625   3.152 -69.304 
 -0.107  -6.502 -66.831 
  5.851   8.561 -63.768 
-14.930  10.053 -68.790 
-13.063   2.995 -67.384 
 12.407  11.022 -65.207 
  5.513  11.360 -70.944 
 10.509 -11.889 -70.524 
  3.539   8.495 -62.892 
 12.043   9.411 -68.730 
  3.780 -12.029 -66.802 
 16.350   0.491 -74.052 
 12.531  -0.356 -65.202 
 13.557  -8.575 -68.644 
-10.726   3.469 -72.819 
  8.534   7.789 -64.249 
 -6.176   3.694 -63.721 
  3.733   6.015 -76.440 
 14.672   4.995 -72.457 
-10.910   8.456 -71.153 
 -7.298  -1.544 -68.809 
 11.459   9.668 -64.699 
 -3.684  10.852 -72.659 
 -4.479   3.715 -71.495 
  7.935  -1.179 -72.111 
 11.970  -8.488 -66.229 
 -6.315   9.206 -61.331 
  8.966   0.312 -68.861 
 -6.481  -3.123 -72.975 
 -7.565  -5.563 -74.744 
  9.817   2.721 -71.505 
  8.652   2.657 -66.853 
  4.255  -8.906 -69.404 
 -7.348  -3.393 -65.896 
  5.098   6.753 -63.594 
 -3.978   9.999 -67.833 
 -3.247   4.448 -73.098 
 -4.834  -3.172 -69.997 
-11.059  12.240 -63.839 
  2.422  -6.047 -76.668 
  2.989  -8.048 -66.441 
 12.228 -11.668 -71.376 
 14.185   9.868 -67.992 
  0.718   8.842 -69.325 
 11.407  12.393 -74.027 
 -6.494  -8.390 -64.263 
 -9.216   5.955 -59.564 
  0.293  12.318 -69.176 
 11.338  -4.525 -67.903 
 -5.130  -1.124 -62.280 
  4.159  -4.226 -62.639 
 -7.257  -9.930 -58.766 
 -8.502  12.188 -76.248 
 16.329  -4.259 -70.185 
  2.289   0.514 -73.370 
 -4.478   2.826 -72.846 
 -7.389   2.686 -61.659 
 -4.763  -5.680 -59.739 
 -3.989   7.885 -67.970 
 -0.429  -4.146 -63.403 
  7.069   8.427 -65.355 
 -1.846   5.938 -68.645 
 15.602   0.296 -63.164 
 -6.218   7.596 -72.263 
 -0.057   9.620 -58.456 
 -2.906   7.792 -75.899 
-10.388  -3.219 -62.799 
-14.659  -9.566 -76.167 
 -3.679   2.703 -69.465 
 11.442  12.873 -67.575 
  9.796   4.144 -67.092 
  7.855   9.660 -62.770 
-11.217  -1.947 -74.707 
 -9.488   1.858 -66.759 
 -5.854   8.906 -75.704 
 -6.631  -8.680 -63.359 
  8.988  11.197 -65.514 
 -7.872  10.073 -66.581 
  0.320  -3.425 -63.201 
  2.165  -5.481 -67.129 
 16.928   4.477 -65.163 
  5.914  -8.217 -68.051 
-14.110   1.591 -76.158 
 -1.741   9.869 -60.132 
-14.277  -9.868 -69.134 
 -9.189  -7.056 -69.727 
  5.933  -2.414 -68.713 
-14.887  -0.514 -76.096 
 -3.544  -7.986 -71.751 
 -9.924 -12.335 -68.741 
  1.303   0.282 -62.669 
  7.134 -11.875 -62.058 
  3.577   5.271 -69.116 
  9.524  -2.801 -63.020 
 -0.758 -11.778 -65.154 
-13.781  -2.031 -70.573 
 -7.826  11.464 -60.560 
  4.319   7.713 -71.002 
  4.324   8.154 -76.337 
 10.072  -5.914 -70.930 
  2.867 -10.406 -76.026 
-12.006  -9.404 -67.007 
 11.699   0.416 -72.140 
 16.074   3.939 -72.290 
-10.415  -9.220 -62.303 
  8.848  -1.433 -59.299 
 15.599  -3.502 -63.196 
 -6.600 -11.930 -65.502 
 11.775  -7.550 -65.831 
 11.100  -3.996 -64.432 
-16.006   7.146 -74.761 
  9.306 -11.355 -72.231 
  3.128  10.460 -76.744 
 -4.172  -5.623 -63.627 
  5.150   5.342 -72.240 
 -3.541  -5.470 -59.168 
  0.289 -10.125 -74.371 
  5.744 -11.806 -68.166 
 14.861   2.830 -69.049 
 12.708   7.010 -66.174 
 -0.462 -12.471 -63.351 
 -6.864  -8.375 -68.210 
 12.894  -0.394 -77.899 
 11.124   1.544 -61.518 
 11.203  -4.848 -62.668 
-11.727   1.599 -63.633 
 12.312   2.590 -63.895 
 14.495  11.031 -68.665 
 -6.887  11.918 -75.900 
 14.949  -7.665 -73.933 
-13.366  12.578 -65.908 
  2.099 -12.046 -75.468 
-13.611   4.240 -73.211 
-11.398   6.546 -74.763 
  3.119   9.107 -68.310 
 -9.248   3.181 -73.260 
 16.895  -9.978 -70.047 
-15.210  11.470 -72.531 
  5.652  11.175 -67.962 
 -0.174 -10.657 -71.220 
  7.895 -11.150 -63.687 
-11.592   5.806 -72.631 
-13.823   9.416 -73.296 
  5.489   1.378 -61.368 
-13.326  -5.597 -73.311 
 14.731   9.002 -71.511 
-10.150   6.590 -76.997 
 12.374  -6.075 -65.290 
 17.557  -0.550 -66.709 
  4.341 -10.857 -65.748 
 -5.864  12.298 -69.210 
 -4.361  12.099 -72.834 
 12.930   8.578 -67.851 
 11.512  -2.357 -68.197 
-13.066  -4.500 -74.380 
 -9.894  -1.482 -70.958 
 -0.909  10.712 -75.239 
  7.027   0.736 -74.358 
 14.426  -6.125 -65.987 
  9.449  10.346 -70.028 
  4.608   4.601 -65.953 
  3.486  -2.830 -68.662 
  4.337   4.641 -58.094 
 13.593  -5.670 -74.839 
 -8.209   0.303 -62.885 
  9.378   9.936 -70.310 
 -1.531  -1.099 -61.622 
  5.658 -13.336 -62.581 
 11.328  -1.613 -63.826 
 -5.182  10.971 -74.642 
 -2.619  11.114 -68.617 
-10.394   0.401 -61.478 
-11.571  12.361 -64.926 
-10.231   6.624 -62.741 
 -1.497   2.993 -61.008 
  5.841  -6.896 -63.165 
 12.563  -8.201 -64.636 
 17.086  -6.428 -71.874 
 -9.724  -3.789 -61.017 
  8.872  -0.223 -74.064 
 -8.760  -6.776 -66.483 
  6.825   9.643 -76.942 
 -2.760 -12.785 -68.436 
  8.085  -8.374 -69.688 
 17.024  10.531 -72.048 
  2.005  -3.236 -68.363 
 12.788   6.142 -63.724 
 -0.134   5.104 -66.829 
 -3.925  10.173 -61.853 
  8.880   1.712 -71.221 
 -4.542  -3.906 -67.307 
 -6.975   6.880 -64.773 
 -3.589 -10.742 -64.487 
 -8.534   0.497 -65.839 
  3.808   2.800 -66.726 
 -3.561   6.348 -69.335 
 -0.524   2.558 -65.135 
 -4.762   7.024 -63.176 
 10.596   1.740 -66.752 
 -1.750  11.413 -66.907 
  5.043   5.048 -73.589 
  4.958  -8.701 -66.964 
 17.407  -5.893 -69.640 
 12.536   5.885 -70.196 
 -2.644  11.636 -73.873 
-10.008  -1.215 -73.001 
  5.279  13.012 -63.246 
 12.248  -9.367 -65.250 
  2.254  -5.598 -66.019 
-13.189   0.629 -66.322 
 -9.040 -11.357 -68.143 
  5.606  -4.493 -75.529 
  0.044  -2.766 -67.688 
 -6.979   8.918 -68.071 
 -1.833   8.886 -74.209 
  0.589   3.103 -73.321 
 -3.305   5.765 -62.378 
 13.391 -11.341 -76.346 
 15.890  -4.607 -67.321 
  0.216 -11.659 -71.398 
 18.839  -7.114 -69.456 

 VERTICES 511 1022 
1 0 
1 1 
1 2 
1 3 
1 4 
1 5 
1 6 
1 7 
1 8 
1 9 
1 10 
1 11 
1 12 
1 13 
1 14 
1 15 
1 16 
1 17 
1 18 
1 19 
1 20 
1 21 
1 22 
1 23 
1 24 
1 25 
1 26 
1 27 
1 28 
1 29 
1 30 
1 31 
1 32 
1 33 
1 34 
1 35 
1 36 
1 37 
1 38 
1 39 
1 40 
1 41 
1 42 
1 43 
1 44 
1 45 
1 46 
1 47 
1 48 
1 49 
1 50 
1 51 
1 52 
1 53 
1 54 
1 55 
1 56 
1 57 
1 58 
1 59 
1 60 
1 61 
1 62 
1 63 
1 64 
1 65 
1 66 
1 67 
1 68 
1 69 
1 70 
1 71 
1 72 
1 73 
1 74 
1 75 
1 76 
1 77 
1 78 
1 79 
1 80 
1 81 
1 82 
1 83 
1 84 
1 85 
1 86 
1 87 
1 88 
1 89 
1 90 
1 91 
1 92 
1 93 
1 94 
1 95 
1 96 
1 97 
1 98 
1 99 
1 100 
1 101 
1 102 
1 103 
1 104 
1 105 
1 106 
1 107 
1 108 
1 109 
1 110 
1 111 
1 112 
1 113 
1 114 
1 115 
1 116 
1 117 
1 118 
1 119 
1 120 
1 121 
1 122 
1 123 
1 124 
1 125 
1 126 
1 127 
1 128 
1 129 
1 130 
1 131 
1 132 
1 133 
1 134 
1 135 
1 136 
1 137 
1 138 
1 139 
1 140 
1 141 
1 142 
1 143 
1 144 
1 145 
1 146 
1 147 
1 148 
1 149 
1 150 
1 151 
1 152 
1 153 
1 154 
1 155 
1 156 
1 157 
1 158 
1 159 
1 160 
1 161 
1 162 
1 163 
1 164 
1 165 
1 166 
1 167 
1 168 
1 169 
1 170 
1 171 
1 172 
1 173 
1 174 
1 175 
1 176 
1 177 
1 178 
1 179 
1 180 
1 181 
1 182 
1 183 
1 184 
1 185 
1 186 
1 187 
1 188 
1 189 
1 190 
1 191 
1 192 
1 193 
1 194 
1 195 
1 196 
1 197 
1 198 
1 199 
1 200 
1 201 
1 202 
1 203 
1 204 
1 205 
1 206 
1 207 
1 208 
1 209 
1 210 
1 211 
1 212 
1 213 
1 214 
1 215 
1 216 
1 217 
1 218 
1 219 
1 220 
1 221 
1 222 
1 223 
1 224 
1 225 
1 226 
1 227 
1 228 
1 229 
1 230 
1 231 
1 232 
1 233 
1 234 
1 235 
1 236 
1 237 
1 238 
1 239 
1 240 
1 241 
1 242 
1 243 
1 244 
1 245 
1 246 
1 247 
1 248 
1 249 
1 250 
1 251 
1 252 
1 253 
1 254 
1 255 
1 256 
1 257 
1 258 
1 259 
1 260 
1 261 
1 262 
1 263 
1 264 
1 265 
1 266 
1 267 
1 268 
1 269 
1 270 
1 271 
1 272 
1 273 
1 274 
1 275 
1 276 
1 277 
1 278 
1 279 
1 280 
1 281 
1 282 
1 283 
1 284 
1 285 
1 286 
1 287 
1 288 
1 289 
1 290 
1 291 
1 292 
1 293 
1 294 
1 295 
1 296 
1 297 
1 298 
1 299 
1 300 
1 301 
1 302 
1 303 
1 304 
1 305 
1 306 
1 307 
1 308 
1 309 
1 310 
1 311 
1 312 
1 313 
1 314 
1 315 
1 316 
1 317 
1 318 
1 319 
1 320 
1 321 
1 322 
1 323 
1 324 
1 325 
1 326 
1 327 
1 328 
1 329 
1 330 
1 331 
1 332 
1 333 
1 334 
1 335 
1 336 
1 337 
1 338 
1 339 
1 340 
1 341 
1 342 
1 343 
1 344 
1 345 
1 346 
1 347 
1 348 
1 349 
1 350 
1 351 
1 352 
1 353 
1 354 
1 355 
1 356 
1 357 
1 358 
1 359 
1 360 
1 361 
1 362 
1 363 
1 364 
1 365 
1 366 
1 367 
1 368 
1 369 
1 370 
1 371 
1 372 
1 373 
1 374 
1 375 
1 376 
1 377 
1 378 
1 379 
1 380 
1 381 
1 382 
1 383 
1 384 
1 385 
1 386 
1 387 
1 388 
1 389 
1 390 
1 391 
1 392 
1 393 
1 394 
1 395 
1 396 
1 397 
1 398 
1 399 
1 400 
1 401 
1 402 
1 403 
1 404 
1 405 
1 406 
1 407 
1 408 
1 409 
1 410 
1 411 
1 412 
1 413 
1 414 
1 415 
1 416 
1 417 
1 418 
1 419 
1 420 
1 421 
1 422 
1 423 
1 424 
1 425 
1 426 
1 427 
1 428 
1 429 
1 430 
1 431 
1 432 
1 433 
1 434 
1 435 
1 436 
1 437 
1 438 
1 439 
1 440 
1 441 
1 442 
1 443 
1 444 
1 445 
1 446 
1 447 
1 448 
1 449 
1 450 
1 451 
1 452 
1 453 
1 454 
1 455 
1 456 
1 457 
1 458 
1 459 
1 460 
1 461 
1 462 
1 463 
1 464 
1 465 
1 466 
1 467 
1 468 
1 469 
1 470 
1 471 
1 472 
1 473 
1 474 
1 475 
1 476 
1 477 
1 478 
1 479 
1 480 
1 481 
1 482 
1 483 
1 484 
1 485 
1 486 
1 487 
1 488 
1 489 
1 490 
1 491 
1 492 
1 493 
1 494 
1 495 
1 496 
1 497 
1 498 
1 499 
1 500 
1 501 
1 502 
1 503 
1 504 
1 505 
1 506 
1 507 
1 508 
1 509 
1 510 
POINT_DATA 511 
SCALARS MeanU double 1 
LOOKUP_TABLE default
0.16274 
0.15715 
0.14011 
0.08755 
0.16872 
0.14984 
0.10043 
0.19818 
0.16237 
0.16975 
0.12905 
0.10626 
0.20689 
0.19395 
0.12965 
0.12801 
0.08686 
0.18122 
0.15141 
0.18014 
0.11532 
0.07243 
0.16496 
0.08593 
0.13897 
0.13808 
0.07423 
0.10461 
0.04680 
0.16889 
0.18240 
0.11911 
0.12816 
0.07790 
0.25325 
0.12206 
0.11266 
0.11868 
0.16506 
0.19025 
0.08073 
0.09343 
0.10728 
0.19361 
0.11942 
0.18414 
0.11974 
0.08056 
0.12841 
0.12850 
0.13937 
0.07783 
0.12074 
0.15900 
0.10412 
0.19941 
0.17535 
0.22530 
0.10462 
0.13029 
0.08443 
0.13152 
0.09155 
0.10054 
0.22919 
0.08431 
0.13386 
0.16501 
0.16081 
0.09553 
0.10213 
0.12999 
0.16386 
0.15131 
0.10725 
0.12203 
0.09734 
0.10852 
0.13177 
0.12260 
0.08554 
0.15135 
0.05098 
0.09911 
0.09734 
0.11286 
0.06981 
0.17343 
0.08969 
0.18126 
0.22159 
0.15713 
0.14434 
0.13799 
0.08622 
0.05081 
0.08641 
0.08114 
0.13641 
0.08473 
0.22207 
0.10095 
0.11875 
0.09675 
0.20249 
0.27114 
0.08341 
0.16322 
0.21840 
0.19231 
0.07587 
0.09986 
0.08169 
0.13639 
0.13536 
0.09493 
0.14456 
0.06941 
0.30769 
0.15038 
0.10579 
0.11552 
0.15766 
0.14551 
0.19143 
0.10481 
0.11356 
0.09846 
0.16587 
0.16546 
0.15441 
0.20404 
0.08068 
0.19658 
0.12506 
0.16921 
0.10369 
0.09372 
0.11402 
0.12997 
0.13368 
0.15614 
0.14332 
0.16205 
0.16091 
0.07839 
0.10958 
0.17773 
0.07554 
0.18054 
0.14424 
0.07138 
0.07188 
0.17577 
0.10155 
0.12596 
0.10386 
0.17534 
0.12018 
0.14423 
0.14453 
0.04853 
0.12056 
0.13367 
0.19548 
0.14767 
0.22526 
0.25990 
0.13199 
0.12285 
0.16578 
0.17938 
0.09065 
0.05307 
0.09371 
0.13093 
0.12267 
0.05140 
0.14998 
0.15376 
0.22793 
0.14153 
0.10758 
0.10078 
0.12830 
0.27304 
0.08975 
0.08854 
0.14455 
0.09425 
0.11176 
0.07446 
0.10946 
0.14718 
0.12284 
0.10213 
0.16121 
0.23409 
0.15797 
0.07304 
0.11163 
0.09058 
0.11064 
0.15824 
0.05378 
0.10650 
0.16967 
0.07083 
0.28520 
0.18772 
0.09589 
0.12087 
0.13387 
0.08645 
0.12116 
0.12183 
0.17253 
0.14039 
0.14251 
0.13097 
0.09058 
0.15280 
0.11705 
0.13214 
0.08543 
0.20003 
0.16848 
0.14354 
0.09828 
0.18877 
0.11801 
0.14555 
0.11868 
0.23372 
0.20370 
0.07862 
0.10090 
0.16145 
0.20029 
0.08492 
0.13323 
0.18719 
0.11342 
0.10903 
0.02440 
0.14526 
0.09216 
0.16832 
0.10730 
0.14351 
0.09067 
0.16537 
0.17777 
0.16388 
0.19529 
0.13001 
0.08235 
0.08115 
0.10972 
0.12778 
0.11129 
0.14233 
0.12894 
0.07312 
0.11416 
0.12506 
0.05189 
0.11377 
0.14061 
0.09691 
0.01774 
0.22003 
0.12414 
0.12694 
0.22006 
0.12418 
0.16844 
0.18680 
0.06668 
0.08250 
0.15022 
0.17595 
0.11429 
0.11724 
0.15096 
0.12526 
0.09827 
0.14620 
0.15055 
0.30666 
0.17707 
0.15971 
0.09368 
0.07662 
0.21779 
0.13433 
0.06717 
0.06277 
0.13623 
0.13271 
0.10237 
0.10904 
0.09376 
0.07287 
0.17169 
0.09867 
0.06997 
0.13875 
0.11825 
0.14110 
0.12855 
0.05433 
0.09904 
0.13332 
0.24101 
0.08549 
0.13984 
0.19990 
0.11974 
0.16042 
0.10355 
0.20126 
0.14212 
0.24756 
0.13462 
0.11309 
0.15593 
0.21740 
0.11449 
0.05720 
0.25828 
0.08776 
0.09012 
0.10781 
0.09819 
0.12729 
0.07865 
0.12515 
0.15625 
0.14426 
0.16040 
0.11699 
0.06810 
0.07764 
0.13729 
0.16383 
0.08956 
0.27979 
0.10057 
0.29096 
0.07427 
0.15905 
0.18328 
0.12491 
0.09790 
0.08957 
0.24442 
0.09656 
0.14687 
0.18548 
0.12855 
0.14557 
0.18011 
0.25722 
0.06312 
0.12160 
0.04605 
0.08993 
0.22818 
0.16844 
0.07466 
0.22084 
0.11093 
0.17774 
0.12751 
0.06352 
0.17735 
0.10009 
0.15278 
0.10402 
0.15966 
0.16103 
0.13575 
0.13615 
0.13446 
0.16214 
0.11315 
0.15756 
0.11184 
0.09751 
0.13831 
0.09600 
0.04349 
0.06463 
0.19805 
0.14101 
0.13188 
0.11415 
0.16307 
0.16804 
0.08227 
0.16582 
0.19523 
0.12055 
0.18673 
0.10010 
0.06541 
0.14612 
0.13171 
0.13094 
0.09807 
0.06900 
0.14660 
0.14987 
0.16425 
0.12464 
0.19168 
0.07620 
0.07661 
0.05006 
0.11030 
0.09859 
0.12631 
0.06843 
0.07166 
0.15107 
0.07454 
0.04318 
0.08668 
0.14027 
0.16639 
0.12367 
0.04004 
0.18397 
0.09408 
0.15836 
0.06255 
0.13648 
0.07947 
0.16315 
0.09583 
0.07571 
0.05411 
0.06711 
0.13689 
0.16885 
0.21406 
0.16229 
0.09892 
0.05608 
0.13352 
0.17909 
0.16329 
0.03711 
0.12171 
0.13752 
0.22900 
0.06644 
0.13237 
0.09760 
0.10585 
0.13436 
0.12796 
0.13739 
0.17332 
0.16593 
0.13334 
0.07014 
0.16934 
0.21396 
0.13168 
0.14358 
0.12155 
0.12184 
0.12709 
0.10389 
0.17795 
0.06605 
0.18630 
0.14809 
0.19863 
0.14361 
0.06136 
0.13558 
0.13723 
0.06475 
0.14681 
0.18014 
0.15678 
0.16915 
0.15079 
0.15810 
0.08121 
0.13784 
0.09964 
0.14977 
0.13468 
0.13056 
0.22395 
0.26728 
0.08833 
0.18191 
0.12266 
0.09761 
0.09057 
0.11669 
0.16153 
0.06114 
0.07835 
0.13911 
0.08990 

 VECTORS Umean float 
0.07800 0.08800 -0.11250 
0.04800 0.14700 -0.02800 
0.05700 0.11650 0.05300 
0.02350 0.08100 0.02350 
0.09600 0.11950 -0.07050 
0.08600 0.08500 -0.08850 
0.01900 0.09800 0.01100 
0.04600 0.16450 -0.10050 
0.06850 0.09000 -0.11650 
0.05100 0.10350 -0.12450 
0.05300 0.11650 0.01650 
0.00450 0.10600 -0.00600 
0.07950 0.11950 -0.14900 
0.14900 0.11450 0.04800 
0.00300 0.12850 -0.01700 
0.05600 0.07050 -0.09100 
0.03500 0.07950 0.00050 
0.12700 0.10600 -0.07400 
0.05950 0.08600 0.10950 
0.10800 0.11100 -0.09200 
-0.02350 0.11250 0.00950 
0.03800 0.05850 -0.01950 
0.07750 0.06850 -0.12850 
0.01650 0.06600 0.05250 
0.05050 0.08100 -0.10100 
-0.03000 0.13400 -0.01450 
0.02050 0.07100 -0.00700 
0.01500 0.10350 -0.00250 
-0.00300 0.04500 -0.01250 
0.12900 0.09000 -0.06150 
0.04350 0.12400 -0.12650 
0.01750 0.11250 -0.03500 
0.07650 0.07800 -0.06700 
0.06500 0.03800 0.02000 
0.02400 0.14950 -0.20300 
0.04950 0.10800 -0.02800 
-0.02550 0.10400 0.03500 
0.00750 0.07700 -0.09000 
0.08650 0.13000 -0.05350 
0.05200 0.14550 -0.11100 
0.00350 0.07700 0.02400 
0.03450 0.05700 -0.06550 
0.01950 0.09150 -0.05250 
0.11400 0.13450 -0.08000 
0.00050 -0.05500 -0.10600 
0.06050 0.13750 -0.10650 
0.03100 0.11550 0.00600 
-0.03700 0.06000 0.03900 
-0.01000 0.12800 0.00250 
0.02250 0.12200 0.03350 
0.06650 0.10650 -0.06050 
-0.00100 0.06350 -0.04500 
0.07600 -0.08600 -0.03750 
0.01250 0.13250 -0.08700 
0.04900 0.05950 -0.07000 
0.07250 0.09850 -0.15750 
0.10250 0.01900 -0.14100 
0.04350 0.16900 -0.14250 
0.01550 0.09500 0.04100 
0.08950 0.03850 -0.08650 
-0.01150 0.08200 -0.01650 
0.10600 -0.06050 -0.04900 
0.00750 0.06600 0.06300 
-0.06550 0.06400 -0.04150 
0.12700 0.08150 -0.17250 
-0.02650 0.05000 -0.06250 
0.10550 0.05750 -0.05900 
0.02750 0.13350 -0.09300 
0.07900 0.12750 -0.05800 
0.06550 0.06950 0.00250 
0.00550 0.10000 0.02000 
0.10300 0.07400 -0.02850 
0.08650 0.02950 -0.13600 
0.03050 0.08900 -0.11850 
0.04100 0.06300 -0.07650 
-0.02200 0.11750 0.02450 
-0.00200 0.09100 -0.03450 
-0.03900 0.10000 0.01600 
0.05600 0.10250 -0.06100 
0.03050 0.06850 -0.09700 
0.04500 0.06850 -0.02450 
0.05900 0.12650 -0.05850 
-0.04400 0.01250 -0.02250 
0.06250 0.06600 -0.03950 
-0.02300 0.09050 0.02750 
-0.01750 0.11100 -0.01050 
0.04700 0.04400 -0.02700 
0.08200 0.14650 -0.04350 
0.02450 0.06200 0.06000 
0.06250 -0.04150 -0.16500 
0.08600 0.13750 -0.15100 
0.10600 0.08350 -0.08050 
0.01500 0.12850 -0.06400 
0.06900 0.11150 -0.04300 
0.05300 0.05500 -0.04000 
-0.01700 0.04200 -0.02300 
0.02000 0.08100 0.02250 
0.00300 0.07450 -0.03200 
-0.01550 0.08750 -0.10350 
0.00850 0.07500 0.03850 
0.11500 0.04100 -0.18550 
0.04600 0.08700 -0.02250 
0.00300 0.11800 0.01300 
0.02200 0.04550 -0.08250 
0.17450 0.08800 -0.05300 
0.17900 0.06350 -0.19350 
0.01400 -0.06450 -0.05100 
0.09150 0.06500 -0.11850 
0.13800 0.07550 -0.15150 
-0.06550 0.15850 -0.08700 
0.00150 0.07050 -0.02800 
0.00800 0.09200 0.03800 
0.06600 0.03550 -0.03250 
0.04900 0.04100 -0.12050 
0.00700 0.13450 0.01350 
0.04000 0.07750 -0.03750 
0.07300 0.11900 -0.03750 
0.00800 -0.04850 0.04900 
0.13050 0.06050 -0.27200 
0.10000 0.08900 -0.06850 
0.10250 0.01800 0.01900 
0.02900 0.11150 0.00850 
0.08200 0.07550 -0.11150 
0.07900 0.09800 -0.07300 
-0.04500 0.18550 -0.01450 
0.01300 0.09700 0.03750 
-0.00500 0.09950 0.05450 
0.02650 0.04400 -0.08400 
0.13750 0.05850 -0.07200 
0.03850 0.15450 -0.04500 
0.01650 0.14000 0.06300 
0.16500 0.11750 -0.02450 
0.02100 0.06800 -0.03800 
0.10450 0.05100 -0.15850 
0.09050 0.03800 -0.07750 
0.02450 0.08950 0.14150 
0.06700 0.01600 -0.07750 
0.05950 0.01650 -0.07050 
0.04100 0.10250 -0.02850 
0.06400 0.09800 -0.05650 
-0.02950 0.12200 0.04600 
0.03300 0.04100 -0.14700 
0.04450 0.12750 -0.04800 
0.06500 0.11150 -0.09800 
0.02950 0.15650 -0.02300 
0.04300 0.06550 -0.00250 
0.08500 0.06050 -0.03350 
0.01500 0.09950 0.14650 
0.03650 0.05150 -0.04150 
0.02300 0.01950 -0.17800 
0.07750 0.11850 0.02750 
-0.02800 0.06050 -0.02550 
0.02800 0.03100 -0.05850 
0.05400 0.07300 -0.15050 
0.08700 0.01850 -0.04900 
0.04050 0.09150 -0.07650 
0.01600 0.07900 0.06550 
0.06050 0.16200 -0.02900 
0.11100 0.04600 0.00250 
0.07600 0.02250 -0.12050 
0.06300 -0.00450 -0.13000 
-0.00150 0.02950 -0.03850 
0.06200 0.07700 -0.06900 
0.04300 0.05700 -0.11300 
0.02300 0.12850 0.14550 
-0.11550 0.00100 -0.09200 
0.09350 0.07300 -0.19150 
0.17600 0.11800 -0.15050 
0.02300 0.07450 -0.10650 
0.02500 0.08200 -0.08800 
0.07850 0.10250 0.10400 
0.09250 0.08800 -0.12600 
0.01450 0.06500 -0.06150 
-0.02750 0.02050 -0.04050 
0.04400 0.08200 0.01100 
-0.01550 0.12950 -0.01150 
0.06200 -0.04000 -0.09800 
0.04400 0.00550 0.02600 
0.03200 0.12900 -0.06950 
0.10850 0.10300 -0.03550 
0.17900 0.12550 -0.06450 
-0.07550 0.11900 -0.01300 
0.02750 0.10400 0.00150 
0.07050 0.03100 -0.06500 
0.02350 0.12200 -0.03200 
0.03200 0.13700 -0.23400 
0.07050 0.02200 -0.05100 
0.07350 0.04100 -0.02750 
-0.08550 0.11650 -0.00350 
0.04600 0.08200 -0.00650 
-0.00750 0.10350 -0.04150 
0.03050 0.06550 -0.01800 
0.08550 0.06400 -0.02400 
-0.04050 0.14150 -0.00050 
0.09100 0.07400 -0.03650 
0.09000 0.02550 -0.04100 
0.09800 0.12800 0.00150 
0.08100 0.11600 -0.18650 
0.04850 0.14450 -0.04150 
-0.01950 0.06500 -0.02700 
0.00900 0.03050 -0.10700 
0.04800 0.05700 -0.05150 
0.09300 0.05350 0.02700 
0.08650 0.08750 -0.09950 
0.02400 0.03950 -0.02750 
0.03050 0.09300 0.04200 
0.08500 0.09950 -0.10800 
0.00750 0.03150 -0.06300 
0.10350 0.09550 -0.24800 
0.09450 0.13000 -0.09700 
-0.04550 0.06800 -0.05000 
0.04400 0.11150 -0.01550 
-0.01100 0.12200 0.05400 
0.08150 0.02400 -0.01600 
-0.02150 -0.09350 -0.07400 
0.08150 0.04600 -0.07800 
0.03700 0.16850 0.00250 
0.03050 0.02050 -0.13550 
0.08750 0.11000 -0.02350 
-0.06500 0.08800 -0.07200 
0.01950 -0.01300 -0.08750 
0.13000 0.04850 -0.06400 
0.00300 0.11050 -0.03850 
0.09200 0.04000 -0.08600 
0.03500 -0.03100 -0.07150 
0.10650 0.09950 -0.13700 
0.09250 0.08600 -0.11150 
0.08350 0.05000 -0.10550 
0.01000 0.09600 0.01850 
0.00350 0.18600 0.03200 
0.01450 0.06850 -0.09500 
0.08250 0.04150 -0.11250 
0.07450 0.08150 -0.04350 
0.17700 0.13350 -0.07400 
0.06450 0.15300 -0.11800 
0.06150 0.04150 0.02600 
0.08750 0.04300 -0.02600 
0.00900 0.15450 -0.04600 
0.02550 0.05800 -0.19000 
0.06450 0.02550 -0.04900 
-0.01950 0.12950 0.02450 
-0.01700 0.15050 -0.11000 
0.09050 0.06800 0.00700 
0.04650 0.09100 -0.03800 
-0.00900 0.02200 0.00550 
0.02400 0.14200 0.01900 
0.08850 0.02300 -0.01150 
0.09950 0.12700 -0.04800 
0.05550 0.05300 -0.07500 
-0.01250 0.13000 -0.05950 
0.08950 0.01450 0.00050 
0.06200 0.04000 -0.14800 
0.12650 0.01500 -0.12400 
0.02950 0.01500 -0.16050 
0.02550 0.05200 -0.18650 
0.00450 0.11250 -0.06500 
0.00350 0.07900 -0.02300 
0.00650 0.07850 -0.01950 
0.07900 0.07100 -0.02750 
0.06000 0.09150 -0.06600 
0.04000 0.08100 -0.06500 
0.06900 0.12400 0.01100 
0.07400 0.09300 -0.05000 
0.03900 -0.04800 -0.03900 
0.00300 0.11100 -0.02650 
0.01150 0.12350 -0.01600 
0.00100 0.04650 0.02300 
0.05450 0.05700 -0.08200 
0.02100 0.13300 0.04050 
0.04400 0.08250 -0.02550 
-0.00150 0.00850 -0.01550 
0.07250 -0.01000 -0.20750 
0.03100 0.12000 0.00700 
0.04350 0.11400 0.03500 
0.08000 0.15600 -0.13300 
0.07550 0.02450 -0.09550 
0.05750 0.14100 -0.07200 
0.07650 0.06000 -0.15950 
0.04750 0.04450 -0.01450 
0.00900 0.07900 -0.02200 
-0.00200 0.01900 -0.14900 
0.03450 0.17250 -0.00350 
0.05050 0.10150 0.01450 
-0.07200 0.02150 -0.09000 
0.08100 0.12650 -0.01500 
0.01300 0.09550 -0.08000 
0.03600 0.05700 -0.07150 
0.06900 0.01000 0.12850 
0.05550 0.13350 0.04200 
0.08050 0.10000 -0.27850 
0.05950 0.16650 -0.00950 
0.08600 0.10050 -0.08950 
-0.00050 0.09000 -0.02600 
-0.05550 0.05050 0.01550 
0.01400 0.16100 -0.14600 
0.11250 -0.04500 0.05800 
-0.04050 0.00300 -0.05350 
0.01550 0.04400 0.04200 
-0.06350 0.10750 0.05450 
0.00750 -0.10600 -0.07950 
0.06150 0.05100 -0.06400 
0.01000 -0.07000 -0.08300 
0.02400 0.09050 -0.00500 
0.03550 0.04550 -0.04450 
0.00800 0.14750 -0.08750 
0.03450 0.08900 -0.02500 
0.00950 0.06200 -0.03100 
0.02300 0.13650 -0.00950 
0.06650 0.05550 -0.08050 
0.04750 0.13150 0.01900 
0.06000 0.08500 -0.07550 
0.04250 0.03200 0.01100 
0.02850 0.07900 -0.05250 
0.07350 0.10150 -0.04550 
0.04000 0.13800 -0.19350 
0.07900 0.02850 -0.01600 
-0.04050 0.11700 0.06500 
0.03900 0.18600 -0.06200 
0.00950 0.11650 -0.02600 
0.07200 0.13850 -0.03700 
0.05450 0.06100 -0.06350 
0.00800 0.19900 -0.02900 
0.08850 0.08950 -0.06600 
0.08850 0.09450 -0.21100 
-0.00350 0.13300 -0.02050 
0.04450 0.07200 0.07500 
0.06700 0.13500 -0.04000 
0.15150 0.10950 -0.11100 
0.05000 -0.00000 0.10300 
0.02700 0.04350 0.02550 
0.17400 0.03000 -0.18850 
0.08100 0.01450 0.03050 
0.03650 0.02800 -0.07750 
0.02650 0.10450 -0.00050 
0.06450 -0.07100 -0.02100 
0.07550 0.05650 -0.08550 
-0.03050 0.05000 -0.05250 
-0.05350 0.11300 -0.00550 
0.09800 0.08300 -0.08900 
-0.00100 -0.01900 -0.14300 
0.10200 -0.00850 -0.12350 
0.07400 0.03000 -0.08550 
-0.01500 0.06250 -0.02250 
0.06600 0.04000 -0.00850 