# vtk DataFile Version 2.0 
Xm, Ym, Zm, Uvecs, timestep 10105 
ASCII 
 
DATASET POLYDATA POINTS 517 float 
  5.731   9.303 -72.106 
  6.153   6.011 -71.796 
  3.519   3.066 -73.332 
 -6.039   1.317 -70.534 
 -7.188   5.690 -72.387 
-11.149  10.484 -72.637 
-14.499  10.166 -74.341 
 -3.471   9.482 -71.302 
 10.240   5.333 -73.077 
  4.063  10.292 -70.198 
  1.113  -6.825 -76.246 
  7.994   3.033 -69.746 
  1.418   9.413 -69.797 
  0.492   9.133 -68.255 
 -3.942  -3.103 -70.983 
  3.788   8.269 -68.937 
  2.862  -6.010 -70.258 
  6.528   8.704 -74.442 
  1.015   5.050 -68.025 
 -5.364  12.602 -69.513 
 -8.604   0.867 -70.239 
-10.702   2.576 -70.406 
 -8.428  -2.183 -73.894 
 -9.697   7.976 -65.946 
  0.419   7.386 -70.475 
 -1.350   8.551 -66.965 
  1.718   3.175 -72.784 
  3.514  -1.333 -68.671 
  0.489  -2.297 -71.546 
 -7.983  -6.864 -72.481 
  4.357  12.231 -67.871 
 -1.672  11.117 -65.889 
  0.683   6.748 -67.612 
 -6.023  -1.220 -72.762 
 -9.230  10.031 -69.378 
  6.108   1.113 -65.046 
  0.049   6.527 -65.743 
 -4.003  -5.333 -71.103 
  8.084   0.160 -68.142 
 -3.437   6.993 -73.776 
 -2.971   6.875 -69.243 
  0.752  10.910 -64.466 
 -0.603   4.715 -68.724 
 -9.399  -0.231 -71.595 
 -5.300  -1.975 -66.514 
  1.882   1.639 -68.642 
 -5.977   8.543 -68.629 
 -0.376   5.482 -69.386 
 -6.047   0.550 -64.336 
  6.247  10.177 -69.397 
  5.521   7.744 -73.529 
  1.602   9.771 -67.026 
  4.428  -3.042 -70.864 
  8.142  -4.000 -67.852 
  6.691   7.492 -74.038 
-10.230   5.228 -71.733 
  2.549   5.688 -64.706 
  4.760 -10.801 -69.422 
  5.838   6.699 -64.740 
  5.751  -4.259 -67.725 
 -1.841  -2.100 -63.669 
 11.538   8.151 -71.596 
-10.093  -1.140 -70.710 
  2.607   4.499 -65.163 
 -8.531   7.700 -66.764 
 -7.029   3.507 -64.614 
 -4.350 -11.634 -67.540 
  4.078   9.372 -69.906 
 -4.984   4.748 -63.279 
-12.014   6.912 -66.790 
 -4.543   5.031 -70.115 
-11.924   4.887 -71.164 
 -0.394   3.947 -75.677 
 -2.560   2.873 -72.686 
  8.368  -4.918 -68.198 
 -3.606  11.328 -74.456 
 -4.739   5.422 -65.464 
  6.630  -4.473 -67.034 
  6.994  13.063 -66.874 
  3.305 -10.292 -67.057 
  2.260   1.017 -71.315 
  6.300  -5.335 -65.471 
 -9.992   1.980 -63.189 
 -8.788  -7.017 -66.519 
 -2.100  -7.958 -69.323 
 -2.724   1.964 -74.157 
 -7.823  -3.991 -75.457 
 13.450   1.648 -66.007 
  9.168  11.131 -72.496 
 11.262  -8.133 -66.326 
 -1.354   0.407 -64.566 
-15.021   4.869 -70.852 
 -8.259   3.173 -75.583 
-13.525   1.067 -67.511 
 -1.198  11.185 -70.767 
 13.589  -5.271 -65.676 
 -2.348 -11.131 -66.262 
 10.709  -2.072 -68.201 
  4.232 -10.220 -65.438 
  0.243   4.905 -68.781 
  0.396  -9.316 -65.169 
  4.231  -0.941 -68.761 
 -1.380   9.547 -64.745 
  1.269 -10.860 -66.707 
-12.951  -5.101 -69.099 
 -4.351  -4.010 -65.528 
  9.846   2.755 -60.949 
 12.316   5.069 -65.792 
-11.005  10.023 -70.440 
 -5.648  -4.273 -69.155 
  7.595  -8.736 -74.313 
  6.613   1.000 -64.346 
-10.109   2.444 -68.088 
 -3.912   3.791 -61.888 
 -0.617   3.093 -73.674 
-11.351   9.186 -69.862 
 -0.014  -7.645 -64.841 
 -8.161   1.287 -67.957 
-12.851   2.730 -71.682 
 -4.188  11.678 -61.395 
 -1.294   9.346 -71.564 
 -6.531  10.207 -66.650 
  4.085   1.698 -65.121 
 -0.740  -0.746 -62.221 
 -2.438  -6.370 -63.460 
 -5.723   6.848 -61.956 
 -2.306 -11.391 -68.588 
  3.072  12.265 -66.621 
 -3.240  -9.704 -67.511 
 -5.996   5.210 -74.066 
  8.861   0.631 -64.612 
  2.479   3.647 -64.594 
 -6.556  -9.024 -66.198 
  1.359 -10.798 -64.147 
 11.098  10.484 -69.431 
 -4.579   7.935 -64.900 
 16.281   0.982 -74.328 
-15.915 -11.158 -74.206 
 -5.170  -8.229 -67.670 
  7.026   4.686 -67.571 
  9.806   8.909 -67.547 
 -3.765  10.887 -66.101 
  2.452   0.166 -64.393 
 10.149   2.085 -73.387 
-13.105   4.344 -73.479 
  9.375  11.558 -66.570 
 12.102   0.639 -66.145 
 14.012   7.877 -69.757 
 -5.864   7.399 -62.363 
 10.522  -2.463 -64.897 
 -8.436  -9.270 -65.703 
-13.396   3.019 -72.807 
  2.672  -4.521 -62.870 
 -7.869  -1.495 -61.975 
 -2.598  12.510 -64.769 
 -2.862   1.467 -62.547 
 -9.410  -2.335 -64.469 
 -1.293   7.309 -74.145 
-10.618  -6.718 -72.319 
  4.274  12.600 -65.328 
 14.159   5.800 -68.816 
 -9.385   1.424 -68.716 
 -1.686   2.236 -64.355 
 -2.577   3.707 -65.579 
 -4.808  -7.713 -69.584 
  1.211  -7.368 -71.660 
 -5.628  -1.770 -61.325 
-10.067  -9.262 -66.918 
 -4.055  -1.886 -68.465 
 -1.008  -5.793 -72.815 
  8.176   2.946 -59.054 
 -3.021  -8.034 -72.774 
  4.511  -6.811 -65.694 
-14.041   8.004 -69.870 
 -9.444  -1.640 -64.111 
  7.919 -11.933 -66.709 
-14.226   9.843 -72.579 
 14.433  -2.659 -69.088 
-13.837  10.846 -74.858 
  2.411  -4.649 -67.311 
 -5.527   3.848 -63.717 
  1.639   2.220 -68.999 
  3.130 -11.484 -66.333 
 -9.779   3.321 -64.135 
 -9.116  13.084 -66.594 
 14.701   2.314 -68.014 
 16.162   3.888 -70.733 
-15.195   9.848 -77.834 
 -9.453  -9.506 -64.489 
  7.209   7.391 -73.763 
 -0.179  -7.385 -72.984 
-15.615   2.837 -71.419 
 12.221   4.284 -69.492 
  9.685  -7.289 -65.789 
  5.170  -6.543 -71.627 
 -1.118   3.583 -65.324 
  6.508   2.457 -67.326 
-10.986  -1.470 -69.999 
 13.991  -1.906 -66.023 
-12.081  -2.154 -63.346 
-13.689  -5.569 -69.325 
 -6.002 -11.084 -75.375 
 -7.104   7.672 -75.906 
 15.688   5.986 -65.865 
-12.681   8.844 -66.825 
 -6.093  -9.946 -76.926 
 -9.570   5.682 -73.508 
 11.287  -4.474 -64.072 
 -1.945   9.886 -65.936 
-11.233  -5.407 -71.487 
-12.206  -1.942 -64.703 
  1.047   2.281 -61.612 
-13.597  11.773 -74.378 
 17.247   2.199 -68.596 
-11.335   6.045 -74.006 
 -0.059  -3.857 -67.894 
  9.661 -11.511 -72.064 
 14.768   1.135 -74.734 
 -3.885  -7.707 -62.889 
-12.471  -6.425 -72.064 
-12.852   8.165 -67.996 
-11.672   5.896 -69.292 
  9.123  -3.228 -69.891 
 -3.852  10.223 -72.299 
-10.231 -11.834 -66.193 
  4.412   6.700 -71.196 
  9.305  -9.353 -69.153 
  7.478  12.707 -65.810 
  2.830  -9.102 -72.881 
 -9.041   8.648 -71.934 
-13.294   5.209 -67.740 
 12.549  10.816 -67.331 
 -2.571  -0.838 -70.849 
 17.059  -0.858 -67.436 
  4.359 -12.595 -68.224 
  5.696   1.148 -68.251 
  6.960   4.788 -63.346 
 -2.194  12.491 -65.567 
 16.479  11.071 -67.493 
  0.580   8.823 -61.368 
 -9.336   3.505 -65.394 
 -5.724  -3.699 -67.646 
 13.927   5.986 -66.544 
  6.572   9.801 -70.338 
  3.611  -5.479 -71.154 
  8.680   5.409 -62.344 
 -9.440  -0.610 -73.194 
 -1.800  -5.131 -63.854 
 -7.361   0.156 -61.376 
 13.753   0.076 -68.336 
-14.438  -8.588 -74.806 
 -5.534   7.622 -66.589 
  4.896 -11.945 -73.354 
  9.140  -4.218 -66.404 
  9.136   1.142 -73.388 
  2.140  -8.584 -73.014 
 -7.553   5.955 -63.092 
  2.140   1.593 -68.126 
  4.645   9.282 -63.477 
  2.972   4.788 -75.182 
 -3.667  -8.626 -74.119 
-13.794  -8.335 -71.475 
  5.672   2.647 -73.628 
  3.416  -2.878 -70.068 
 11.996  -3.692 -71.617 
-13.744   7.805 -66.130 
 14.588   9.750 -69.977 
 16.333  11.698 -68.412 
 -8.451   1.859 -63.692 
-13.371   5.022 -64.917 
-13.000  10.692 -67.860 
 13.063  11.682 -68.499 
 15.524  -9.935 -69.424 
  7.244   6.207 -70.984 
  0.520   2.309 -76.174 
-12.744   3.502 -75.174 
 11.348  13.089 -66.003 
  3.400   1.371 -73.031 
 14.978  -0.303 -66.299 
 -4.321   1.943 -67.693 
-14.195  10.825 -73.142 
 15.086   0.449 -64.026 
 11.862   0.316 -65.066 
 -5.659  -0.011 -63.490 
-14.348   0.795 -77.272 
 -9.364   0.330 -63.218 
  9.960   8.154 -64.835 
 -7.415  -3.544 -64.310 
  7.905   1.357 -74.473 
 -2.130  -9.624 -69.106 
 11.971 -10.835 -72.855 
-12.897   6.797 -71.839 
  5.077  12.361 -66.174 
  4.648  11.614 -68.164 
 11.115   7.333 -61.987 
  1.803 -11.422 -67.249 
 17.081  -7.485 -69.415 
 -3.024  -5.769 -77.914 
 10.360   5.141 -66.791 
-11.471   9.899 -66.725 
 12.017  -3.305 -65.213 
 -0.901  -6.079 -67.625 
-15.457 -11.323 -71.808 
 -9.747  -3.901 -72.339 
  1.274  -9.319 -69.489 
  6.672   6.770 -75.311 
  1.143   7.800 -69.167 
  1.561 -12.670 -66.778 
 -9.680  -2.492 -68.000 
 12.544  -4.123 -69.710 
  0.814   3.796 -71.320 
-11.630  -8.959 -74.426 
  1.226 -10.133 -66.538 
 -3.123  12.069 -72.352 
  2.434  -8.922 -71.650 
  4.575  -2.276 -70.862 
  2.382  -1.618 -72.893 
  4.137   4.933 -71.178 
 -0.958   9.791 -70.280 
  6.068  -1.285 -67.960 
 -5.034   0.440 -72.322 
 -3.422  -8.949 -68.826 
-11.469 -11.833 -66.727 
 12.304  -1.106 -75.464 
 -4.016   7.210 -63.814 
 -4.320   6.213 -75.501 
 -9.413   6.460 -75.487 
 -2.687   2.422 -62.282 
 -3.611   6.399 -62.971 
  8.108  -8.954 -62.428 
  3.183  -9.570 -67.179 
 -0.923  -1.762 -63.163 
 -2.583  -4.799 -62.856 
 -5.306   2.187 -64.126 
 -4.648   5.433 -68.678 
-15.182  -5.460 -68.532 
 14.131  -9.244 -67.234 
 -1.261   0.038 -70.992 
  2.732 -12.410 -64.058 
  5.364  -1.789 -70.210 
  4.907  -2.599 -71.582 
 -5.142   3.457 -64.096 
 -8.191  10.932 -76.477 
-12.283  -0.349 -75.790 
  4.359   9.059 -60.224 
-10.248 -11.089 -72.666 
  9.639  -6.069 -67.621 
  5.872   3.026 -62.736 
 -2.063  -7.046 -66.715 
 13.583   3.247 -69.648 
 -1.344 -10.110 -69.959 
  3.212 -11.872 -65.433 
 15.616   3.744 -65.156 
  5.832  11.340 -73.576 
  0.857  12.068 -71.286 
  6.730   8.201 -72.768 
  7.893   2.194 -68.183 
  1.146   2.876 -71.136 
 -3.621  -9.018 -72.786 
  7.444   9.483 -68.319 
  8.247  -1.683 -61.111 
  2.471  -0.725 -63.112 
  4.818   2.975 -62.732 
 -9.102  -9.282 -65.798 
 -1.712   1.750 -70.241 
 -5.668  10.656 -60.891 
 -8.803  12.534 -66.404 
  3.538  -1.522 -59.976 
 -4.601  -8.210 -63.903 
 -6.940  -9.732 -64.208 
  2.795  -0.522 -65.498 
-12.570   1.942 -74.316 
  2.265 -12.380 -68.183 
  3.599  -1.787 -64.572 
 -4.799   9.582 -74.335 
 -6.339   3.357 -61.326 
 -3.239   9.975 -63.654 
-11.288 -10.438 -61.819 
 -4.138   3.612 -68.248 
-12.277   8.503 -63.135 
 -2.219 -11.796 -64.483 
 10.063  -1.948 -65.913 
  7.218  -5.826 -63.042 
  0.426   4.399 -62.215 
  9.233 -12.491 -71.374 
  8.886  -2.817 -66.381 
-10.469  -7.811 -77.020 
-12.567  12.841 -68.028 
  5.207 -12.908 -65.147 
 -6.534   5.144 -72.651 
 13.135  -5.777 -70.856 
-11.508   1.581 -60.466 
 -1.226  11.311 -73.959 
  8.806  -6.623 -62.023 
 11.249  -1.103 -66.636 
  8.877  12.302 -68.488 
  5.896 -12.753 -65.039 
 -9.680  -9.526 -73.064 
 -8.492  -5.708 -65.025 
  2.491   3.082 -70.086 
 -2.177   8.392 -76.438 
 -9.434   0.975 -59.445 
 -3.764  -0.719 -71.529 
-14.314 -12.153 -71.900 
  0.441   6.698 -76.037 
  4.218  11.224 -59.096 
 14.163  -5.152 -63.180 
 17.656  -5.998 -67.603 
 13.096  -2.389 -61.228 
-13.609   5.085 -69.986 
  5.985  -6.952 -75.918 
 11.371 -12.059 -70.125 
 18.435 -11.477 -70.926 
  2.605  -4.812 -71.864 
  3.666  -5.273 -74.072 
  9.559  -3.313 -71.682 
  4.517   7.744 -71.864 
 -0.897  -7.604 -64.221 
 14.826 -12.337 -73.615 
 12.506   3.203 -70.585 
  9.565  -8.515 -63.749 
-13.671  -4.875 -75.715 
  8.049  -6.692 -67.369 
 12.005  -3.649 -69.289 
  5.024  -3.955 -63.588 
  3.430   6.537 -61.648 
 -8.777   3.675 -60.135 
 -3.032   8.662 -68.737 
 12.213  -5.857 -73.570 
 11.304  12.520 -64.834 
 15.483 -10.774 -74.569 
-11.395  11.677 -59.487 
 -7.562  -0.006 -62.825 
 10.743   0.487 -70.206 
 13.566  -5.784 -63.374 
 12.922  -8.228 -65.662 
 15.990  -4.205 -63.343 
-13.720  -0.780 -65.531 
 -5.016   2.719 -76.316 
 -5.627  -0.380 -69.021 
 14.049 -10.019 -62.719 
  7.288   5.824 -58.921 
 -6.101  -8.951 -72.245 
 12.115  -7.624 -63.658 
 16.623 -11.810 -73.441 
 -5.937   5.089 -62.623 
 16.628  -1.530 -67.215 
 -6.433  -7.461 -63.212 
 -7.432   8.995 -62.111 
 -1.950 -11.513 -65.180 
 -7.764  11.457 -69.329 
  2.402   6.587 -68.659 
 11.479  -6.450 -61.558 
  1.371   5.186 -71.983 
 -9.910 -10.718 -75.750 
 -0.781 -11.602 -74.942 
 -7.364  10.529 -74.727 
-11.034  -3.242 -69.254 
  3.670  -5.492 -60.197 
 12.829   6.636 -71.587 
 11.570  11.686 -67.954 
-14.558   0.778 -67.162 
 -4.848  -2.692 -63.629 
 12.323 -10.602 -68.044 
 -4.729   4.768 -77.457 
  3.258  -2.484 -67.816 
 -2.003  10.086 -73.392 
  2.490  -9.977 -77.276 
 11.404   8.150 -76.069 
  4.152  -5.779 -73.254 
  7.255   5.047 -75.397 
 16.435  -5.774 -68.578 
-13.595   4.521 -76.702 
 -0.947  -5.252 -68.712 
 11.657  -6.915 -65.453 
 13.692  12.733 -69.168 
 -6.896  -0.759 -69.708 
  7.315  -3.825 -70.801 
 18.003   9.773 -70.674 
 -1.785  -4.805 -63.807 
  3.159  -5.123 -71.462 
-16.043  -8.784 -75.004 
  9.207  -6.141 -61.594 
 -8.011  -4.659 -69.221 
 12.976  -7.761 -63.782 
 -9.341   2.744 -61.971 
  5.875  -6.981 -72.966 
  0.371  -6.598 -76.207 
 10.232   6.555 -66.672 
-10.595   0.124 -76.846 
 -5.410 -10.374 -65.569 
 -0.643   7.918 -64.488 
  8.073  -2.749 -65.961 
 -4.222  -5.454 -74.565 
  3.976   3.362 -62.505 
 -9.915   0.173 -67.477 
 11.982  -1.505 -74.515 
 15.765   6.534 -66.884 
 -9.151   2.138 -72.081 
  2.450   8.038 -60.471 
 -4.665 -11.367 -63.556 
  3.984  -4.697 -73.281 
 -1.856   6.938 -69.078 
 14.655 -10.305 -68.020 
 -2.650  10.185 -69.744 
 14.175   6.654 -73.436 
 -1.994   3.113 -68.652 
  7.023   1.927 -64.695 
  7.755   8.529 -62.308 
 -9.065   8.340 -69.529 
  3.617 -10.307 -66.310 
 10.775  -5.442 -67.273 
  2.090  10.831 -72.559 
 -5.558  13.199 -69.362 
  9.229  -7.676 -73.582 
 13.372   6.388 -69.789 
  7.184   4.912 -66.155 

 VERTICES 517 1034 
1 0 
1 1 
1 2 
1 3 
1 4 
1 5 
1 6 
1 7 
1 8 
1 9 
1 10 
1 11 
1 12 
1 13 
1 14 
1 15 
1 16 
1 17 
1 18 
1 19 
1 20 
1 21 
1 22 
1 23 
1 24 
1 25 
1 26 
1 27 
1 28 
1 29 
1 30 
1 31 
1 32 
1 33 
1 34 
1 35 
1 36 
1 37 
1 38 
1 39 
1 40 
1 41 
1 42 
1 43 
1 44 
1 45 
1 46 
1 47 
1 48 
1 49 
1 50 
1 51 
1 52 
1 53 
1 54 
1 55 
1 56 
1 57 
1 58 
1 59 
1 60 
1 61 
1 62 
1 63 
1 64 
1 65 
1 66 
1 67 
1 68 
1 69 
1 70 
1 71 
1 72 
1 73 
1 74 
1 75 
1 76 
1 77 
1 78 
1 79 
1 80 
1 81 
1 82 
1 83 
1 84 
1 85 
1 86 
1 87 
1 88 
1 89 
1 90 
1 91 
1 92 
1 93 
1 94 
1 95 
1 96 
1 97 
1 98 
1 99 
1 100 
1 101 
1 102 
1 103 
1 104 
1 105 
1 106 
1 107 
1 108 
1 109 
1 110 
1 111 
1 112 
1 113 
1 114 
1 115 
1 116 
1 117 
1 118 
1 119 
1 120 
1 121 
1 122 
1 123 
1 124 
1 125 
1 126 
1 127 
1 128 
1 129 
1 130 
1 131 
1 132 
1 133 
1 134 
1 135 
1 136 
1 137 
1 138 
1 139 
1 140 
1 141 
1 142 
1 143 
1 144 
1 145 
1 146 
1 147 
1 148 
1 149 
1 150 
1 151 
1 152 
1 153 
1 154 
1 155 
1 156 
1 157 
1 158 
1 159 
1 160 
1 161 
1 162 
1 163 
1 164 
1 165 
1 166 
1 167 
1 168 
1 169 
1 170 
1 171 
1 172 
1 173 
1 174 
1 175 
1 176 
1 177 
1 178 
1 179 
1 180 
1 181 
1 182 
1 183 
1 184 
1 185 
1 186 
1 187 
1 188 
1 189 
1 190 
1 191 
1 192 
1 193 
1 194 
1 195 
1 196 
1 197 
1 198 
1 199 
1 200 
1 201 
1 202 
1 203 
1 204 
1 205 
1 206 
1 207 
1 208 
1 209 
1 210 
1 211 
1 212 
1 213 
1 214 
1 215 
1 216 
1 217 
1 218 
1 219 
1 220 
1 221 
1 222 
1 223 
1 224 
1 225 
1 226 
1 227 
1 228 
1 229 
1 230 
1 231 
1 232 
1 233 
1 234 
1 235 
1 236 
1 237 
1 238 
1 239 
1 240 
1 241 
1 242 
1 243 
1 244 
1 245 
1 246 
1 247 
1 248 
1 249 
1 250 
1 251 
1 252 
1 253 
1 254 
1 255 
1 256 
1 257 
1 258 
1 259 
1 260 
1 261 
1 262 
1 263 
1 264 
1 265 
1 266 
1 267 
1 268 
1 269 
1 270 
1 271 
1 272 
1 273 
1 274 
1 275 
1 276 
1 277 
1 278 
1 279 
1 280 
1 281 
1 282 
1 283 
1 284 
1 285 
1 286 
1 287 
1 288 
1 289 
1 290 
1 291 
1 292 
1 293 
1 294 
1 295 
1 296 
1 297 
1 298 
1 299 
1 300 
1 301 
1 302 
1 303 
1 304 
1 305 
1 306 
1 307 
1 308 
1 309 
1 310 
1 311 
1 312 
1 313 
1 314 
1 315 
1 316 
1 317 
1 318 
1 319 
1 320 
1 321 
1 322 
1 323 
1 324 
1 325 
1 326 
1 327 
1 328 
1 329 
1 330 
1 331 
1 332 
1 333 
1 334 
1 335 
1 336 
1 337 
1 338 
1 339 
1 340 
1 341 
1 342 
1 343 
1 344 
1 345 
1 346 
1 347 
1 348 
1 349 
1 350 
1 351 
1 352 
1 353 
1 354 
1 355 
1 356 
1 357 
1 358 
1 359 
1 360 
1 361 
1 362 
1 363 
1 364 
1 365 
1 366 
1 367 
1 368 
1 369 
1 370 
1 371 
1 372 
1 373 
1 374 
1 375 
1 376 
1 377 
1 378 
1 379 
1 380 
1 381 
1 382 
1 383 
1 384 
1 385 
1 386 
1 387 
1 388 
1 389 
1 390 
1 391 
1 392 
1 393 
1 394 
1 395 
1 396 
1 397 
1 398 
1 399 
1 400 
1 401 
1 402 
1 403 
1 404 
1 405 
1 406 
1 407 
1 408 
1 409 
1 410 
1 411 
1 412 
1 413 
1 414 
1 415 
1 416 
1 417 
1 418 
1 419 
1 420 
1 421 
1 422 
1 423 
1 424 
1 425 
1 426 
1 427 
1 428 
1 429 
1 430 
1 431 
1 432 
1 433 
1 434 
1 435 
1 436 
1 437 
1 438 
1 439 
1 440 
1 441 
1 442 
1 443 
1 444 
1 445 
1 446 
1 447 
1 448 
1 449 
1 450 
1 451 
1 452 
1 453 
1 454 
1 455 
1 456 
1 457 
1 458 
1 459 
1 460 
1 461 
1 462 
1 463 
1 464 
1 465 
1 466 
1 467 
1 468 
1 469 
1 470 
1 471 
1 472 
1 473 
1 474 
1 475 
1 476 
1 477 
1 478 
1 479 
1 480 
1 481 
1 482 
1 483 
1 484 
1 485 
1 486 
1 487 
1 488 
1 489 
1 490 
1 491 
1 492 
1 493 
1 494 
1 495 
1 496 
1 497 
1 498 
1 499 
1 500 
1 501 
1 502 
1 503 
1 504 
1 505 
1 506 
1 507 
1 508 
1 509 
1 510 
1 511 
1 512 
1 513 
1 514 
1 515 
1 516 
POINT_DATA 517 
SCALARS MeanU double 1 
LOOKUP_TABLE default
0.05362 
0.14951 
0.15806 
0.09664 
0.07032 
0.07851 
0.04854 
0.10950 
0.15473 
0.09288 
0.04704 
0.14418 
0.10797 
0.07568 
0.10737 
0.10834 
0.16959 
0.07232 
0.10817 
0.07843 
0.13280 
0.15956 
0.11409 
0.20749 
0.16272 
0.14256 
0.09799 
0.14797 
0.13382 
0.16349 
0.11578 
0.09675 
0.11820 
0.14144 
0.09870 
0.18093 
0.12647 
0.15278 
0.19771 
0.08080 
0.16700 
0.18476 
0.12823 
0.11501 
0.13497 
0.14283 
0.09711 
0.12427 
0.12971 
0.06150 
0.16478 
0.11276 
0.19584 
0.10991 
0.21186 
0.14978 
0.13898 
0.19965 
0.08244 
0.19563 
0.27200 
0.11194 
0.12977 
0.12446 
0.10077 
0.11655 
0.12724 
0.12983 
0.16007 
0.14574 
0.07796 
0.10618 
0.07362 
0.11536 
0.10922 
0.06043 
0.14387 
0.21536 
0.09846 
0.15758 
0.15006 
0.17790 
0.13978 
0.13017 
0.17435 
0.09201 
0.14176 
0.17218 
0.12657 
0.08053 
0.12331 
0.04864 
0.04918 
0.11097 
0.10322 
0.13324 
0.10176 
0.03269 
0.17126 
0.11518 
0.14640 
0.20972 
0.11933 
0.11311 
0.08400 
0.14536 
0.20094 
0.13308 
0.09819 
0.17340 
0.13758 
0.18766 
0.13764 
0.07912 
0.13814 
0.11752 
0.14474 
0.14936 
0.19046 
0.16240 
0.09529 
0.14923 
0.10006 
0.09643 
0.13747 
0.09701 
0.10531 
0.13591 
0.09424 
0.07564 
0.16597 
0.12243 
0.07190 
0.17600 
0.11715 
0.17732 
0.11609 
0.10052 
0.03737 
0.13583 
0.06596 
0.12847 
0.09299 
0.14342 
0.13423 
0.04458 
0.13659 
0.11384 
0.14194 
0.13765 
0.11670 
0.09296 
0.21982 
0.11550 
0.12277 
0.08623 
0.20958 
0.11395 
0.18752 
0.13682 
0.16030 
0.15735 
0.09971 
0.16314 
0.12768 
0.18534 
0.07004 
0.07886 
0.17146 
0.11011 
0.21674 
0.13694 
0.24046 
0.08949 
0.14180 
0.14100 
0.04477 
0.07493 
0.07976 
0.14164 
0.15230 
0.14349 
0.12319 
0.14639 
0.04820 
0.09408 
0.06706 
0.04279 
0.11199 
0.16573 
0.07477 
0.05910 
0.15865 
0.10780 
0.14208 
0.10020 
0.17034 
0.13541 
0.08372 
0.26902 
0.09102 
0.08507 
0.05904 
0.15971 
0.18243 
0.06590 
0.07918 
0.17005 
0.11085 
0.17548 
0.25669 
0.13399 
0.06128 
0.06886 
0.09869 
0.14709 
0.10219 
0.10740 
0.08742 
0.12987 
0.20436 
0.18834 
0.07521 
0.06513 
0.15653 
0.12053 
0.05740 
0.12372 
0.19696 
0.05974 
0.22082 
0.04296 
0.12021 
0.04657 
0.18354 
0.21890 
0.14357 
0.18967 
0.09825 
0.12639 
0.15976 
0.15049 
0.12781 
0.06752 
0.15061 
0.17319 
0.12675 
0.17322 
0.10316 
0.05515 
0.19551 
0.18011 
0.19242 
0.10897 
0.17592 
0.15939 
0.16881 
0.15983 
0.12462 
0.14157 
0.10557 
0.15680 
0.21758 
0.15703 
0.12205 
0.11552 
0.11343 
0.09374 
0.12756 
0.15853 
0.11461 
0.16101 
0.10465 
0.10125 
0.06703 
0.07903 
0.10390 
0.13711 
0.05340 
0.17128 
0.05632 
0.09574 
0.13086 
0.13455 
0.13165 
0.14906 
0.09857 
0.28497 
0.19918 
0.16152 
0.12329 
0.06299 
0.06494 
0.09513 
0.14449 
0.15865 
0.03437 
0.03308 
0.12723 
0.11528 
0.09915 
0.11969 
0.13477 
0.15053 
0.17599 
0.19091 
0.14008 
0.11834 
0.16041 
0.04003 
0.13122 
0.17298 
0.09867 
0.06458 
0.22324 
0.20054 
0.13505 
0.10103 
0.07560 
0.20553 
0.19101 
0.11011 
0.14585 
0.09725 
0.10834 
0.06982 
0.06713 
0.09716 
0.24905 
0.14868 
0.16721 
0.23981 
0.21781 
0.18567 
0.09630 
0.19399 
0.08911 
0.18005 
0.10297 
0.17036 
0.22335 
0.12957 
0.03735 
0.10103 
0.16286 
0.12840 
0.06579 
0.11967 
0.17001 
0.13311 
0.18530 
0.13032 
0.13911 
0.10267 
0.13950 
0.10380 
0.16435 
0.13171 
0.09405 
0.09846 
0.15445 
0.11434 
0.12791 
0.07893 
0.11877 
0.12183 
0.07904 
0.17406 
0.11686 
0.19023 
0.13273 
0.12419 
0.15721 
0.14561 
0.06034 
0.07718 
0.15060 
0.12048 
0.14897 
0.07817 
0.12547 
0.14094 
0.17873 
0.10937 
0.08901 
0.13935 
0.14357 
0.04900 
0.12138 
0.07365 
0.13229 
0.08298 
0.09965 
0.13462 
0.07527 
0.08948 
0.12658 
0.09151 
0.24653 
0.21133 
0.04974 
0.10885 
0.18292 
0.14039 
0.08165 
0.14935 
0.12544 
0.08915 
0.20519 
0.19360 
0.13039 
0.08733 
0.08041 
0.14825 
0.11923 
0.12383 
0.12791 
0.14557 
0.06745 
0.19046 
0.13939 
0.16915 
0.11121 
0.06473 
0.23292 
0.09915 
0.08429 
0.09973 
0.11362 
0.10326 
0.04914 
0.11134 
0.09420 
0.11887 
0.17437 
0.13731 
0.09070 
0.22460 
0.09441 
0.10301 
0.14845 
0.13281 
0.10108 
0.16375 
0.09297 
0.14872 
0.08442 
0.26872 
0.11675 
0.14027 
0.09209 
0.10945 
0.07489 
0.14031 
0.13051 
0.08798 
0.06304 
0.09566 
0.12152 
0.12841 
0.12164 
0.17801 
0.11247 
0.07751 
0.07954 
0.08842 
0.08541 
0.07022 
0.11439 
0.10867 
0.14461 
0.07452 
0.15016 
0.17016 
0.10824 
0.05900 
0.09228 
0.16378 
0.14792 
0.16834 
0.15185 
0.14496 
0.18621 
0.16611 
0.15593 
0.15732 
0.16211 
0.10334 
0.09363 
0.08803 
0.09027 
0.14617 
0.18793 
0.13499 
0.12899 
0.16503 
0.12094 
0.17694 
0.12105 
0.14690 
0.08084 
0.12012 
0.13105 
0.13977 
0.07007 
0.15636 
0.12078 
0.17515 
0.14888 
0.09901 
0.17320 
0.07544 
0.10967 
0.07863 
0.13434 
0.09702 
0.11541 

 VECTORS Umean float 
0.00350 0.05150 -0.01450 
-0.00500 0.13750 -0.05850 
0.06650 0.14000 -0.03100 
0.04850 0.08050 -0.02250 
0.04250 0.05600 -0.00150 
0.01850 0.07500 -0.01400 
0.04000 0.01650 0.02200 
0.07900 0.05700 -0.05000 
0.01850 0.12150 -0.09400 
-0.04250 0.08000 -0.02050 
0.04000 0.01750 -0.01750 
0.06750 0.09400 -0.08600 
-0.02150 0.10550 0.00800 
0.04400 0.06150 0.00300 
0.01350 0.10650 0.00200 
0.04100 0.09900 -0.01600 
0.08800 0.10100 -0.10400 
0.02150 0.05150 -0.04600 
0.03950 0.09950 0.01550 
-0.00350 0.07750 0.01150 
0.07250 0.09700 -0.05450 
-0.03700 0.14000 0.06700 
0.06050 0.08250 -0.05050 
-0.01150 0.20200 -0.04600 
0.05400 0.14750 0.04250 
0.02800 0.13200 0.04600 
0.01300 0.09650 -0.01100 
0.05850 0.08750 -0.10400 
0.06500 0.10350 -0.05450 
0.10200 0.12050 -0.04250 
-0.01800 0.10000 -0.05550 
0.03550 0.09000 0.00100 
0.04050 0.10300 0.04150 
0.04850 0.12350 -0.04900 
0.07400 0.06150 0.02200 
0.03000 0.15550 -0.08750 
0.01700 0.10150 0.07350 
0.06500 0.13750 -0.01450 
0.08050 0.12050 -0.13450 
0.06750 0.04400 0.00600 
0.08450 0.14400 0.00350 
0.00650 0.16150 0.08950 
0.00650 0.12450 0.03000 
-0.01350 0.08200 -0.07950 
0.03150 0.12050 -0.05200 
0.07200 0.11900 -0.03250 
0.08700 0.03650 0.02300 
0.04650 0.11500 0.00750 
0.03750 0.12300 0.01700 
-0.01250 0.05250 -0.02950 
-0.04500 0.11650 -0.10750 
-0.01350 0.09150 0.06450 
0.07800 0.12950 -0.12450 
0.00950 0.10950 -0.00000 
-0.03350 0.13050 -0.16350 
0.09150 0.10950 0.04550 
0.08800 0.10450 -0.02550 
0.06350 0.07450 -0.17400 
0.05250 0.06050 -0.01950 
0.04250 0.10500 -0.15950 
0.10150 0.19050 -0.16550 
0.07950 0.04150 -0.06700 
0.04000 0.10950 -0.05700 
0.07800 0.07500 -0.06150 
0.03600 0.09300 0.01450 
0.01100 0.11600 -0.00250 
0.10800 0.05000 -0.04500 
0.00200 0.12950 -0.00900 
-0.05200 0.13600 0.06650 
-0.02950 0.12950 -0.06000 
0.03700 0.06350 -0.02600 
0.02800 0.10100 -0.01700 
0.01350 0.07100 0.01400 
0.05500 0.08850 0.04950 
0.03000 0.10200 -0.02500 
-0.03650 0.04800 -0.00400 
0.07050 0.09700 0.07950 
0.08750 0.10950 -0.16350 
-0.01800 0.08000 0.05450 
0.07550 0.06700 -0.12100 
0.08450 0.12400 0.00150 
0.08100 0.11250 -0.11150 
0.02500 0.13750 -0.00250 
0.04950 0.05800 -0.10550 
0.07300 0.13750 -0.07850 
0.05000 0.07700 0.00600 
0.11300 0.06600 -0.05450 
0.01100 0.12050 -0.12250 
-0.04150 0.04050 -0.11250 
0.03350 0.05350 0.05000 
0.04350 0.10350 -0.05100 
0.01900 0.03900 -0.02200 
0.03750 0.03150 -0.00450 
-0.00150 0.10750 -0.02750 
-0.00700 0.10250 -0.01000 
0.09450 0.05450 0.07650 
0.07400 0.04550 -0.05300 
-0.02800 0.01650 -0.00350 
0.07000 0.06950 -0.14000 
0.01250 0.11450 -0.00050 
0.10900 0.08650 -0.04550 
0.07600 0.07500 -0.18050 
0.01800 0.11250 0.03550 
0.07150 0.04450 -0.07550 
0.03050 0.06950 -0.03600 
0.09450 0.09550 -0.05550 
0.02850 0.16300 -0.11400 
0.07750 0.07650 -0.07650 
0.06550 0.07050 -0.01950 
0.01450 0.15100 -0.08400 
0.08900 0.04950 -0.09250 
0.02900 0.16750 -0.07950 
0.01300 0.11500 -0.07450 
0.02450 0.07450 0.01050 
-0.01250 0.13750 0.00450 
0.04400 0.10800 -0.01450 
0.06650 0.07200 -0.10650 
0.04700 0.10000 -0.10050 
0.09900 0.16100 0.02350 
-0.02450 0.15850 0.02550 
0.05900 0.07450 -0.00700 
0.09750 0.11100 0.02100 
0.02250 0.08050 -0.05500 
0.05600 0.07550 -0.02150 
0.02100 0.09250 -0.09950 
-0.01950 0.05050 0.08050 
0.05200 0.02700 -0.08750 
-0.02100 0.11750 -0.06500 
0.06850 0.01250 -0.06350 
0.05400 0.05250 -0.00700 
0.02600 0.14550 -0.07550 
0.02750 0.08000 -0.08850 
0.03650 0.02850 -0.05500 
0.11750 0.08100 -0.10300 
0.02150 -0.10600 -0.04500 
0.07550 0.10650 0.12000 
0.00300 0.05250 -0.10350 
0.04450 0.05800 -0.06900 
0.02750 0.02400 0.00800 
0.08300 0.10000 -0.03950 
-0.01450 0.05950 -0.02450 
0.08350 0.09750 0.00500 
0.05600 0.07400 -0.00600 
0.04300 0.09700 -0.09650 
0.10950 0.02350 -0.07400 
0.00050 0.04100 0.01750 
0.05550 0.07400 -0.10050 
0.07050 0.01250 -0.08850 
-0.02100 0.09750 0.10100 
0.00750 0.13700 0.01100 
0.00400 0.04150 -0.10900 
0.07000 0.06050 0.00900 
0.15800 0.08350 -0.12800 
0.04700 0.10100 -0.03050 
0.03750 0.11600 0.01450 
0.01450 0.08500 0.00100 
0.08050 0.11650 -0.15450 
0.05850 0.09550 -0.02100 
0.05400 0.11550 -0.13750 
0.02350 0.12350 -0.05400 
0.08350 0.09550 -0.09800 
0.07200 0.11300 -0.08250 
-0.01150 0.09500 0.02800 
0.04700 0.15550 0.01500 
0.07200 0.09650 0.04250 
0.10600 0.09400 -0.11950 
0.02300 0.05450 0.03750 
-0.03100 -0.00150 -0.07250 
0.02850 0.16800 0.01900 
0.03050 0.10550 0.00800 
0.01200 0.15550 -0.15050 
-0.03850 0.11450 0.06450 
0.12550 0.10450 -0.17650 
-0.06450 0.05800 -0.02200 
0.05950 0.08950 -0.09250 
0.00050 0.14100 0.00050 
0.04350 0.00350 -0.01000 
-0.07350 0.00550 -0.01350 
0.00500 0.07950 0.00400 
0.10400 0.08650 -0.04200 
-0.00650 0.15200 -0.00700 
0.05700 0.13000 -0.02100 
0.04550 0.02800 -0.11100 
-0.00500 0.14600 0.00950 
0.01150 0.04300 -0.01850 
0.02950 0.02750 -0.08500 
0.02550 0.00800 -0.06150 
0.00250 0.01500 -0.04000 
0.03050 0.06750 -0.08400 
-0.02700 0.10600 -0.12450 
0.02550 0.06950 0.01050 
0.03050 0.01450 0.04850 
0.07050 0.10100 -0.10000 
0.05400 0.08900 -0.02800 
0.09450 0.06350 -0.08500 
0.02100 0.08650 0.04600 
0.09800 0.12350 -0.06450 
0.01000 0.08850 -0.10200 
0.03200 0.07250 0.02700 
0.01300 0.10100 -0.24900 
-0.00050 0.08200 -0.03950 
0.06850 0.04750 -0.01700 
0.05150 0.02800 0.00700 
0.10150 0.09550 -0.07800 
-0.05400 0.17400 -0.00950 
0.05150 0.01300 -0.03900 
0.01300 0.05000 -0.06000 
0.09950 0.13750 0.01050 
0.04800 0.08100 0.05850 
0.07150 0.15900 -0.02000 
0.00150 0.18050 -0.18250 
0.04200 0.11450 -0.05550 
0.01600 0.05450 0.02300 
0.02150 0.04700 -0.04550 
0.09350 0.00600 -0.03100 
0.08150 0.10150 -0.06850 
0.10000 0.01000 0.01850 
0.01300 0.08600 -0.06300 
-0.01400 0.01750 -0.08450 
0.04400 0.12150 -0.01300 
-0.03550 0.16950 -0.10850 
0.03900 0.18050 -0.03700 
0.06100 0.03750 -0.02300 
-0.00950 0.06400 -0.00750 
0.02800 -0.00150 -0.15400 
-0.03050 0.11550 -0.01600 
0.01300 0.04400 -0.03450 
-0.00400 0.09300 0.08150 
0.09650 0.06950 -0.15700 
0.01900 0.04200 0.03800 
-0.00200 0.20600 -0.07950 
-0.03200 -0.02100 -0.01950 
0.06700 0.09650 -0.02550 
-0.01800 0.03900 -0.01800 
0.03550 0.11200 -0.14100 
0.13450 0.13750 -0.10450 
0.08350 0.11300 -0.02950 
0.02200 0.18150 0.05050 
0.06650 0.02000 -0.06950 
0.04050 0.10150 -0.06350 
0.02600 0.15750 0.00650 
0.04300 0.10850 -0.09500 
0.07300 0.08500 -0.06150 
0.00150 0.05400 -0.04050 
0.07900 0.08150 -0.09900 
0.02750 0.14950 -0.08300 
0.03900 0.09600 -0.07300 
0.05350 0.09000 -0.13800 
0.00550 0.10300 -0.00150 
0.04400 0.03200 0.00900 
-0.04450 0.19000 -0.01200 
0.07550 0.10300 0.12700 
0.12450 0.05250 -0.13700 
0.02350 0.09900 -0.03900 
0.08250 0.10050 -0.11850 
0.08350 0.04800 -0.12700 
0.00650 0.16200 0.04700 
0.08850 0.13300 0.00500 
0.03700 0.10500 -0.05600 
0.00600 0.13800 -0.03100 
0.01000 0.10500 0.00450 
0.05850 0.11350 -0.09100 
0.04500 0.19100 -0.09400 
0.06100 0.13300 -0.05700 
0.08750 0.05550 -0.06450 
-0.02800 0.04050 0.10450 
0.08100 -0.04700 -0.06400 
0.06450 -0.04200 0.05350 
-0.01600 0.12650 -0.00350 
0.04250 0.11500 0.10050 
0.00750 0.10950 -0.03300 
0.06150 -0.12350 -0.08300 
0.09750 -0.02400 -0.02950 
0.00150 0.06800 -0.07500 
0.02100 0.06350 -0.00450 
0.05200 -0.00150 -0.05950 
-0.03300 -0.09850 -0.00200 
0.04500 0.12950 -0.00200 
0.02500 0.04200 -0.02150 
0.10200 0.13450 -0.02900 
0.03850 0.03300 0.02450 
0.01300 0.09250 -0.02100 
-0.01700 0.12850 0.01800 
0.02150 0.12950 -0.02950 
0.04250 0.07500 -0.09950 
0.02550 0.12250 -0.08100 
0.05550 0.07800 -0.02350 
0.13700 0.15500 -0.19600 
0.12700 0.10800 -0.10900 
0.05250 0.08850 -0.12450 
0.11850 0.00100 -0.03400 
0.00250 0.01550 -0.06100 
0.00800 0.05650 -0.03100 
-0.01050 0.09450 -0.00300 
0.07800 0.12150 -0.00550 
0.09650 0.05350 -0.11400 
0.00400 0.03400 -0.00300 
0.02200 0.01300 0.02100 
0.09800 0.06100 -0.05350 
0.02600 0.10750 0.03250 
0.03050 0.08800 -0.03400 
0.10250 0.06150 -0.00600 
0.04950 0.04500 -0.11700 
0.06150 0.09150 -0.10250 
0.12500 0.11400 -0.04850 
0.00500 0.15700 -0.10850 
0.05400 0.07250 0.10700 
0.05700 0.06600 -0.08000 
0.06450 0.14550 -0.02000 
-0.01450 0.02150 0.03050 
-0.01100 0.12400 0.04150 
0.03000 0.13900 -0.09850 
0.06450 0.05050 -0.05500 
0.00650 0.05600 -0.03150 
0.11450 0.08750 -0.17050 
0.10300 0.12800 -0.11500 
0.07800 0.09900 -0.04850 
0.02100 0.09400 -0.03050 
0.02800 0.06600 -0.02400 
0.07600 0.15950 -0.10500 
0.08200 0.16000 -0.06450 
0.05750 0.07500 -0.05650 
0.01400 -0.02200 -0.14350 
0.04000 0.02150 -0.08600 
0.01250 0.08900 0.06050 
0.05500 0.04300 -0.00050 
0.01100 0.06450 0.01500 
-0.01800 0.08550 0.04250 
0.08550 0.21050 0.10200 
0.12000 0.08400 -0.02550 
0.06000 0.07000 -0.13950 
0.06400 0.21550 -0.08350 
0.04550 0.10200 -0.18700 
0.04350 0.16700 -0.06850 
0.03150 0.09100 -0.00000 