# vtk DataFile Version 2.0 
Xm, Ym, Zm, Uvecs, timestep 10064 
ASCII 
 
DATASET POLYDATA POINTS 503 float 
 -1.607   8.005 -69.685 
 -0.891   6.739 -71.614 
 -3.700 -10.875 -72.531 
  3.163   5.921 -72.204 
 -3.088  -2.436 -69.566 
  1.922  10.272 -70.037 
  3.126   0.312 -68.406 
-12.312   6.321 -72.540 
 -0.220   2.282 -72.847 
  7.282   0.022 -68.850 
 -2.994   2.494 -70.468 
  9.284   7.333 -68.959 
  2.923  -6.160 -73.367 
 -5.037   8.566 -73.302 
-12.731   0.064 -71.374 
  7.090  -1.562 -68.503 
 -9.712   2.208 -72.898 
 -9.412   0.379 -77.335 
  6.782  -2.855 -72.462 
 -6.132   4.250 -68.136 
 -0.824   3.181 -73.098 
  1.240   7.828 -71.811 
 10.194   1.887 -68.758 
 -5.033  -4.467 -68.407 
  7.260   9.586 -70.003 
 -8.508  -7.223 -68.529 
 -2.112   0.333 -74.204 
  0.826  -8.506 -75.822 
 -2.538  -5.172 -69.336 
 -6.752  10.281 -65.942 
 -5.406   3.915 -69.366 
  6.572  -2.398 -67.400 
  2.222   6.140 -69.961 
  8.076  11.621 -71.889 
 -5.416  -4.585 -71.560 
  6.937   5.323 -63.751 
 12.273  -0.450 -72.457 
 14.881   9.137 -71.724 
 -2.760  12.045 -70.507 
-11.490   2.703 -71.564 
 -8.739   8.576 -68.990 
  8.261   6.442 -68.388 
  8.590   3.176 -73.353 
  2.370   6.717 -64.474 
  3.785  -6.031 -68.528 
  2.825   7.939 -66.275 
  3.580   6.313 -67.648 
-12.012   2.952 -66.634 
-14.718 -11.715 -72.446 
 -4.678  -2.537 -70.725 
-11.147   7.607 -62.969 
  2.861   7.181 -63.764 
 15.267   0.398 -70.812 
 -0.564  10.791 -64.436 
 -6.777   5.776 -71.059 
  3.581   7.333 -64.935 
 -2.684  11.854 -68.250 
 -6.862  12.462 -67.131 
 11.745  -2.979 -72.263 
 -0.700   8.966 -63.926 
  2.591   3.152 -73.378 
 -8.805   5.981 -64.647 
 -7.493  -8.027 -69.362 
  6.388  -1.797 -64.542 
-14.109  -3.455 -68.204 
  7.781 -11.138 -66.035 
  9.499 -10.049 -70.103 
 -5.771  -3.758 -67.478 
 -2.860  11.312 -73.934 
  6.080  12.488 -66.823 
  6.906  -9.587 -63.803 
  5.146 -10.309 -71.558 
  8.606  -3.157 -71.951 
-11.762  -2.241 -73.867 
 -8.105   2.158 -71.893 
 -6.386  10.081 -63.536 
 -2.629   1.293 -66.102 
 -1.570   0.040 -69.108 
 -2.646  -5.582 -72.073 
  1.486  -3.397 -67.499 
  7.423  -7.185 -65.990 
  8.777   0.987 -63.359 
-10.954  10.663 -66.742 
  9.741   8.758 -71.423 
 -5.688  -0.235 -63.926 
 11.713  10.400 -64.619 
-10.977  -5.669 -72.049 
 -9.761   2.244 -69.457 
-13.108  -6.496 -75.735 
 -8.477  -2.700 -68.185 
 13.895   1.446 -71.542 
 -4.458 -11.788 -69.591 
 -4.690  -6.285 -66.369 
 -6.501   6.267 -63.459 
 -7.522   6.283 -64.065 
 -9.622  12.149 -65.627 
-10.712   1.588 -68.500 
 -0.406   9.241 -73.249 
 17.737   1.994 -70.223 
  6.150  -3.722 -69.056 
 -3.064  -0.821 -74.975 
 -3.481  -0.644 -66.937 
  3.204  -6.666 -65.652 
-10.448   0.794 -65.285 
  1.630   0.956 -70.814 
  3.664  -2.144 -65.716 
 -5.716  -4.539 -63.795 
 13.678  -7.608 -68.118 
  1.224   2.800 -62.832 
  9.796  -5.918 -73.177 
 -3.688   9.699 -64.354 
 -1.696  -1.868 -67.919 
 -4.786  -2.066 -66.180 
 -9.666  -2.840 -61.392 
 -5.914  -1.547 -63.791 
 -7.538  -1.124 -66.735 
 15.703   5.055 -71.572 
 -3.103   9.925 -71.203 
  0.966   1.934 -74.379 
 -0.798   0.684 -65.815 
 -9.300   3.636 -70.098 
  2.070  -0.101 -67.160 
 15.537   4.723 -67.387 
 -9.348  10.873 -66.086 
  6.271 -12.491 -67.078 
 -1.652   9.584 -65.475 
 -6.075  11.130 -67.401 
 -8.813   9.938 -63.168 
-15.022   6.212 -74.115 
  0.963  -3.651 -74.065 
 -8.806   4.813 -69.732 
  8.639  11.117 -70.121 
  4.342   3.420 -62.680 
 16.815  10.273 -71.142 
  2.896   8.604 -65.655 
 12.226  -3.832 -67.828 
 -3.108  -4.672 -73.481 
 -8.768   4.306 -60.451 
  4.353   3.073 -65.467 
  1.378  11.553 -76.185 
 13.054  11.602 -67.459 
 -5.271  -3.183 -69.035 
-11.262   3.942 -69.870 
 -7.351   0.599 -71.749 
  8.027   2.336 -65.858 
  4.215   9.483 -71.575 
-15.221  -4.874 -71.524 
-12.487   7.795 -69.075 
  7.408  12.771 -65.942 
 -5.821  -0.131 -74.398 
  7.076  -6.563 -72.576 
-13.607 -11.852 -68.520 
 10.212  10.916 -71.180 
  3.906 -12.101 -66.267 
  9.984  -3.833 -62.962 
-10.807   9.033 -64.622 
 -5.094   7.866 -76.202 
-11.352   0.037 -63.698 
 10.723   1.856 -64.296 
  3.297  -4.516 -66.661 
-15.753  -9.244 -72.488 
 -2.390  -5.094 -72.256 
  4.342  -4.219 -68.916 
  6.694   1.228 -69.171 
 -6.749  10.412 -70.383 
  7.039  11.354 -70.727 
 13.628  -1.178 -70.374 
  0.220   3.361 -74.620 
  8.550   5.022 -65.157 
  3.756  -8.520 -74.903 
 -9.575  12.867 -65.992 
  3.559  -9.535 -67.121 
 -8.433  -0.597 -61.700 
-12.332   3.535 -66.629 
-11.415  -6.832 -68.660 
 -3.886   3.216 -67.704 
 -4.394   1.396 -65.715 
-10.229   4.277 -68.308 
 -6.795   3.679 -68.086 
 -3.339 -11.372 -63.305 
-12.276  -0.553 -68.438 
  2.242  -1.289 -63.960 
 -6.573  -6.090 -68.707 
-14.361   7.946 -71.725 
  6.494  -9.279 -64.100 
 14.367  -0.229 -66.947 
 -7.158   3.724 -62.031 
 -5.032   0.301 -68.852 
  7.332   9.322 -74.349 
 -4.480   1.623 -67.126 
  4.286 -12.435 -66.816 
-12.755  11.597 -66.303 
-15.043   7.713 -70.344 
 -6.070  11.682 -65.272 
 10.511  -3.385 -70.971 
-13.178   6.111 -66.499 
  6.735  -8.977 -66.459 
 -8.940  -2.639 -66.651 
 -7.261  -3.292 -65.517 
  9.685  -1.750 -72.578 
 14.495   4.773 -64.551 
  8.252  -6.640 -70.309 
  3.390  -0.417 -66.940 
-11.413 -11.822 -73.974 
  6.011  -5.351 -69.511 
 -5.764 -10.322 -72.881 
  0.750  -7.975 -62.403 
  8.316   6.789 -62.930 
 -0.730  -1.570 -64.171 
 -9.357   9.577 -67.375 
 11.022 -12.823 -70.535 
 -8.434   7.761 -74.221 
 15.405  -3.820 -72.148 
 -8.345   0.290 -76.927 
 10.083  -2.242 -69.714 
  0.685  -5.345 -61.299 
 10.171   8.457 -63.895 
  4.001  -3.227 -64.464 
-13.726   9.565 -73.539 
 -9.354  -8.327 -70.987 
  8.379  -3.643 -64.584 
  8.845  -2.882 -76.224 
  9.954  -1.208 -65.327 
 13.631  10.454 -70.248 
 -0.011  -7.758 -67.768 
 13.348   0.150 -70.372 
  2.567  -4.495 -72.647 
-14.030  -5.931 -69.421 
-12.566   5.474 -65.101 
-13.695   8.219 -76.664 
 -6.306   8.539 -68.273 
 17.675   3.827 -68.367 
  9.316   3.714 -62.669 
 -9.539  -2.758 -67.025 
 -8.114   8.317 -74.159 
 -4.417   7.446 -66.514 
 -7.267  -7.348 -66.733 
 -8.860   6.309 -72.612 
 -9.410   6.134 -70.469 
  5.999  10.346 -73.565 
-12.979  10.158 -64.840 
  6.018  -7.910 -66.158 
  2.114   9.617 -61.394 
  8.048   0.798 -65.829 
-11.583  -4.251 -65.994 
-14.994  -5.154 -72.172 
  7.063   7.045 -73.912 
-14.616  -8.912 -71.951 
 -9.968  -2.296 -61.233 
 13.017   8.386 -64.577 
 13.392   2.766 -64.643 
 12.219   4.274 -66.620 
 13.596  -4.976 -72.504 
  7.909   8.063 -66.322 
  6.231 -12.710 -70.570 
 -9.537  -0.738 -68.172 
  2.171 -10.506 -72.552 
 15.427  -7.026 -68.827 
 -1.063   1.042 -65.638 
 -4.265  12.215 -66.658 
 -6.875  -6.409 -68.475 
 -2.394 -10.229 -70.399 
  7.983   4.794 -65.996 
 15.710  -9.402 -69.032 
  6.868  10.311 -71.268 
 16.180   7.091 -68.504 
 -1.100   5.886 -65.368 
 -7.079   9.209 -68.188 
 -5.530 -11.168 -67.329 
 -4.926   6.059 -71.719 
  4.882  -2.558 -63.728 
 -0.551  -4.795 -66.957 
 -6.350 -12.143 -72.962 
 13.602  -2.103 -71.686 
  9.662   3.112 -63.337 
-11.576   9.799 -69.879 
 15.876 -10.639 -71.379 
 11.654   7.219 -66.549 
 10.825   8.962 -68.639 
  7.435  -8.191 -65.691 
 -3.766  -7.642 -67.464 
 15.935  -0.595 -75.947 
 -5.661 -12.297 -72.175 
 16.255  -7.080 -72.363 
-13.044  -3.690 -70.197 
  3.558   9.241 -71.700 
 -7.386   9.955 -66.828 
  5.849 -10.972 -75.822 
 15.153   4.064 -63.648 
 17.444  -5.867 -71.300 
 14.620 -12.515 -73.318 
 12.486  11.500 -63.827 
 14.011  -6.342 -74.225 
 -3.006  12.081 -65.207 
  3.503   6.572 -65.303 
 -1.690   9.210 -73.968 
-10.021   8.655 -66.993 
 13.098  -1.592 -63.505 
 12.973   0.741 -71.853 
-13.264   1.261 -68.439 
  9.789   4.257 -65.391 
 15.351  -4.085 -66.613 
  0.708   6.323 -69.160 
  0.217  12.064 -65.272 
 -4.486  -7.840 -72.757 
 -8.561  -4.899 -72.929 
  0.937   1.876 -70.720 
  8.274   7.688 -71.449 
  4.634   0.724 -68.791 
 -6.512   9.948 -74.517 
 -9.178 -11.823 -68.970 
  6.194  -3.550 -73.108 
  5.872   6.465 -69.481 
  2.284 -10.181 -63.473 
 -0.656  -9.972 -75.297 
-10.617  -1.639 -79.602 
 13.587  -9.628 -67.303 
  3.984  10.457 -72.240 
 -7.149  -1.037 -63.285 
 -3.741  -4.042 -71.405 
 13.809  -2.696 -74.066 
 -3.509   6.151 -76.757 
 -4.043   5.332 -72.594 
 -0.157   7.466 -71.662 
 10.939  -3.764 -62.011 
  7.922 -12.397 -68.168 
 -8.370   6.935 -63.044 
  2.793  -4.111 -77.778 
 -7.706  -3.856 -68.626 
 11.989   4.765 -67.301 
 11.308  -5.469 -62.823 
 -6.194   8.425 -75.109 
 -6.104  -4.279 -66.707 
 -6.199   1.569 -63.883 
  2.637   8.138 -75.666 
-13.323   3.750 -67.725 
 -3.950  -8.396 -64.175 
  9.806  10.284 -67.397 
  1.662   4.496 -59.840 
 -2.558  -8.950 -63.126 
 16.059  -5.515 -66.227 
 -9.396 -10.095 -60.270 
  5.117  -9.064 -71.357 
  6.586   3.769 -66.837 
 -4.688 -10.326 -61.309 
-10.177  -8.372 -61.445 
 -5.043  -3.007 -61.371 
  6.451  12.382 -73.224 
  5.524  -0.368 -72.052 
 15.403  -6.810 -74.624 
 11.229   2.994 -63.014 
 -6.706  -5.970 -66.838 
  6.001  -4.397 -65.141 
 -4.633  -8.041 -67.223 
 -6.586 -11.375 -65.763 
 10.576   6.824 -64.126 
  2.113  -9.947 -76.569 
 -3.147   7.179 -68.030 
  6.523  -3.652 -64.213 
  8.331   8.681 -62.409 
-14.450  -4.113 -66.878 
  2.523  -2.834 -59.912 
 -2.292   5.230 -74.799 
 -1.304  -3.853 -71.525 
 16.228   8.143 -69.870 
  1.421  11.563 -63.352 
 -4.604  -5.489 -58.611 
  0.593 -13.084 -64.317 
 11.528 -12.428 -67.225 
 -1.225  -1.803 -60.715 
 -5.515   0.656 -65.940 
 10.894  -7.465 -71.026 
-10.701  -3.394 -75.492 
 12.177  -9.748 -74.892 
 15.430   9.236 -70.340 
 -4.684  12.030 -61.448 
-10.448  -5.792 -64.962 
 13.669   1.011 -62.514 
 -1.322  -0.435 -64.946 
 -1.597  10.224 -56.438 
-14.981  -1.614 -68.507 
 13.663  -6.438 -66.578 
  2.994   1.591 -59.884 
 12.839  -3.637 -75.471 
-14.541  -5.303 -67.117 
 15.161   3.593 -70.438 
-14.534   8.055 -75.880 
-14.942   4.659 -69.206 
-10.339  -3.171 -59.572 
 -9.313  -2.657 -58.636 
 -7.621  -5.107 -78.099 
 14.786 -10.561 -67.868 
-12.902  12.295 -72.328 
 15.116   7.456 -62.938 
 14.655  -4.974 -73.118 
  7.782   5.425 -61.462 
-13.857  12.587 -67.200 
 15.618  12.427 -70.471 
  9.014   8.933 -74.852 
  8.005  -4.973 -66.472 
 12.035   9.046 -62.028 
 15.951 -10.131 -67.087 
 16.742   1.974 -66.176 
 -7.704  -9.805 -68.289 
 -0.814   7.363 -68.001 
-13.739   0.516 -69.876 
 -9.174   6.428 -67.142 
  5.452  -5.289 -78.034 
-13.170   0.777 -69.028 
-14.085   2.990 -65.875 
 -9.337   8.837 -64.426 
  3.316   1.676 -66.996 
 11.887  -3.468 -63.752 
 -1.262   5.803 -67.670 
  6.406  -5.101 -76.524 
  6.627   4.158 -66.320 
 -1.895  13.057 -62.801 
  5.883 -12.256 -72.564 
 11.485  10.566 -66.064 
  1.952  -0.877 -71.024 
 15.145  -8.686 -71.982 
 17.768   2.937 -70.547 
  5.742 -11.108 -67.220 
  8.188  -5.434 -63.873 
  6.539  -4.991 -69.198 
  6.358   6.050 -64.139 
 -6.613  10.834 -74.583 
 -7.157  -2.883 -62.581 
  7.099   1.434 -61.462 
  4.184  -7.192 -72.452 
  4.819   9.039 -71.676 
 -5.398  11.945 -66.308 
 12.294  11.069 -72.570 
 10.901   9.549 -75.655 
  8.813  -7.861 -73.739 
-15.326 -10.447 -71.803 
  6.324 -11.400 -74.401 
 15.709  -8.962 -64.751 
 -0.006  -8.977 -75.638 
 -3.332   7.609 -65.483 
-15.679   7.184 -74.828 
 16.443  11.483 -70.898 
  2.957   3.450 -60.672 
  1.753  -4.677 -61.267 
  4.481 -11.537 -64.578 
 17.894  -7.819 -74.678 
 -7.578  11.958 -60.362 
 -6.097   8.986 -68.253 
  9.880  -3.162 -71.221 
 16.175  -1.848 -71.202 
 -6.958   9.370 -60.183 
 14.505 -13.084 -65.617 
-15.627  -7.605 -72.548 
 10.547  -5.999 -66.351 
-14.279  -5.183 -67.543 
 13.529  -5.543 -65.929 
 12.738  -5.872 -74.239 
 16.780 -11.713 -67.998 
 15.980   7.415 -65.337 
 13.589  -2.372 -70.730 
 -5.719   0.180 -72.910 
 -1.420  -9.935 -68.490 
 18.397  -5.132 -67.899 
  4.510   7.987 -71.702 
 11.233   8.722 -68.594 
  1.820  -0.502 -63.070 
  4.190   5.758 -59.887 
 12.796   6.028 -63.547 
 15.250   2.181 -62.272 
 13.119  -3.199 -64.100 
 10.287   0.482 -65.335 
 12.325  -2.607 -58.415 
 -2.898   6.608 -70.525 
  0.183   6.232 -71.958 
 -5.008   9.841 -71.681 
 -4.236  -3.210 -69.569 
 -7.808  -2.987 -64.740 
  5.393  -9.345 -66.989 
 13.234   3.664 -72.291 
 -7.025   1.225 -67.078 
  5.914   3.998 -70.807 
 13.563  -3.873 -77.029 
 -2.002  -8.216 -62.471 
 -9.463  -8.962 -64.065 
  9.229  11.315 -71.357 
 13.761  10.136 -66.284 
  0.872  12.474 -62.564 
 12.810  -7.165 -68.714 
 -9.475  -7.775 -74.410 
 -8.582   0.431 -62.046 
 18.052  -7.283 -67.668 
  8.052 -10.571 -74.246 
 15.514  -3.734 -74.373 
 -3.894   7.753 -60.495 
 -7.667  -5.895 -67.236 
 11.348  10.314 -73.202 
 -4.710   1.377 -63.538 
 -2.011   7.931 -67.216 
 -6.656  11.973 -75.297 
 -9.151  -0.443 -64.285 
 11.994 -11.565 -64.191 
 -2.171   7.178 -62.713 
-13.718   3.317 -66.342 

 VERTICES 503 1006 
1 0 
1 1 
1 2 
1 3 
1 4 
1 5 
1 6 
1 7 
1 8 
1 9 
1 10 
1 11 
1 12 
1 13 
1 14 
1 15 
1 16 
1 17 
1 18 
1 19 
1 20 
1 21 
1 22 
1 23 
1 24 
1 25 
1 26 
1 27 
1 28 
1 29 
1 30 
1 31 
1 32 
1 33 
1 34 
1 35 
1 36 
1 37 
1 38 
1 39 
1 40 
1 41 
1 42 
1 43 
1 44 
1 45 
1 46 
1 47 
1 48 
1 49 
1 50 
1 51 
1 52 
1 53 
1 54 
1 55 
1 56 
1 57 
1 58 
1 59 
1 60 
1 61 
1 62 
1 63 
1 64 
1 65 
1 66 
1 67 
1 68 
1 69 
1 70 
1 71 
1 72 
1 73 
1 74 
1 75 
1 76 
1 77 
1 78 
1 79 
1 80 
1 81 
1 82 
1 83 
1 84 
1 85 
1 86 
1 87 
1 88 
1 89 
1 90 
1 91 
1 92 
1 93 
1 94 
1 95 
1 96 
1 97 
1 98 
1 99 
1 100 
1 101 
1 102 
1 103 
1 104 
1 105 
1 106 
1 107 
1 108 
1 109 
1 110 
1 111 
1 112 
1 113 
1 114 
1 115 
1 116 
1 117 
1 118 
1 119 
1 120 
1 121 
1 122 
1 123 
1 124 
1 125 
1 126 
1 127 
1 128 
1 129 
1 130 
1 131 
1 132 
1 133 
1 134 
1 135 
1 136 
1 137 
1 138 
1 139 
1 140 
1 141 
1 142 
1 143 
1 144 
1 145 
1 146 
1 147 
1 148 
1 149 
1 150 
1 151 
1 152 
1 153 
1 154 
1 155 
1 156 
1 157 
1 158 
1 159 
1 160 
1 161 
1 162 
1 163 
1 164 
1 165 
1 166 
1 167 
1 168 
1 169 
1 170 
1 171 
1 172 
1 173 
1 174 
1 175 
1 176 
1 177 
1 178 
1 179 
1 180 
1 181 
1 182 
1 183 
1 184 
1 185 
1 186 
1 187 
1 188 
1 189 
1 190 
1 191 
1 192 
1 193 
1 194 
1 195 
1 196 
1 197 
1 198 
1 199 
1 200 
1 201 
1 202 
1 203 
1 204 
1 205 
1 206 
1 207 
1 208 
1 209 
1 210 
1 211 
1 212 
1 213 
1 214 
1 215 
1 216 
1 217 
1 218 
1 219 
1 220 
1 221 
1 222 
1 223 
1 224 
1 225 
1 226 
1 227 
1 228 
1 229 
1 230 
1 231 
1 232 
1 233 
1 234 
1 235 
1 236 
1 237 
1 238 
1 239 
1 240 
1 241 
1 242 
1 243 
1 244 
1 245 
1 246 
1 247 
1 248 
1 249 
1 250 
1 251 
1 252 
1 253 
1 254 
1 255 
1 256 
1 257 
1 258 
1 259 
1 260 
1 261 
1 262 
1 263 
1 264 
1 265 
1 266 
1 267 
1 268 
1 269 
1 270 
1 271 
1 272 
1 273 
1 274 
1 275 
1 276 
1 277 
1 278 
1 279 
1 280 
1 281 
1 282 
1 283 
1 284 
1 285 
1 286 
1 287 
1 288 
1 289 
1 290 
1 291 
1 292 
1 293 
1 294 
1 295 
1 296 
1 297 
1 298 
1 299 
1 300 
1 301 
1 302 
1 303 
1 304 
1 305 
1 306 
1 307 
1 308 
1 309 
1 310 
1 311 
1 312 
1 313 
1 314 
1 315 
1 316 
1 317 
1 318 
1 319 
1 320 
1 321 
1 322 
1 323 
1 324 
1 325 
1 326 
1 327 
1 328 
1 329 
1 330 
1 331 
1 332 
1 333 
1 334 
1 335 
1 336 
1 337 
1 338 
1 339 
1 340 
1 341 
1 342 
1 343 
1 344 
1 345 
1 346 
1 347 
1 348 
1 349 
1 350 
1 351 
1 352 
1 353 
1 354 
1 355 
1 356 
1 357 
1 358 
1 359 
1 360 
1 361 
1 362 
1 363 
1 364 
1 365 
1 366 
1 367 
1 368 
1 369 
1 370 
1 371 
1 372 
1 373 
1 374 
1 375 
1 376 
1 377 
1 378 
1 379 
1 380 
1 381 
1 382 
1 383 
1 384 
1 385 
1 386 
1 387 
1 388 
1 389 
1 390 
1 391 
1 392 
1 393 
1 394 
1 395 
1 396 
1 397 
1 398 
1 399 
1 400 
1 401 
1 402 
1 403 
1 404 
1 405 
1 406 
1 407 
1 408 
1 409 
1 410 
1 411 
1 412 
1 413 
1 414 
1 415 
1 416 
1 417 
1 418 
1 419 
1 420 
1 421 
1 422 
1 423 
1 424 
1 425 
1 426 
1 427 
1 428 
1 429 
1 430 
1 431 
1 432 
1 433 
1 434 
1 435 
1 436 
1 437 
1 438 
1 439 
1 440 
1 441 
1 442 
1 443 
1 444 
1 445 
1 446 
1 447 
1 448 
1 449 
1 450 
1 451 
1 452 
1 453 
1 454 
1 455 
1 456 
1 457 
1 458 
1 459 
1 460 
1 461 
1 462 
1 463 
1 464 
1 465 
1 466 
1 467 
1 468 
1 469 
1 470 
1 471 
1 472 
1 473 
1 474 
1 475 
1 476 
1 477 
1 478 
1 479 
1 480 
1 481 
1 482 
1 483 
1 484 
1 485 
1 486 
1 487 
1 488 
1 489 
1 490 
1 491 
1 492 
1 493 
1 494 
1 495 
1 496 
1 497 
1 498 
1 499 
1 500 
1 501 
1 502 
POINT_DATA 503 
SCALARS MeanU double 1 
LOOKUP_TABLE default
0.13808 
0.10377 
0.16232 
0.09475 
0.11695 
0.06025 
0.16733 
0.03575 
0.11565 
0.17810 
0.09756 
0.09943 
0.09256 
0.11002 
0.09247 
0.13938 
0.05969 
0.05591 
0.06574 
0.11507 
0.09417 
0.07496 
0.17027 
0.11882 
0.13771 
0.10213 
0.10736 
0.09945 
0.13409 
0.12973 
0.09157 
0.16512 
0.11127 
0.09479 
0.16123 
0.08541 
0.05306 
0.07806 
0.13059 
0.06811 
0.12486 
0.06487 
0.13083 
0.17985 
0.18523 
0.15246 
0.14415 
0.20106 
0.13827 
0.14072 
0.13889 
0.16913 
0.10134 
0.14510 
0.05429 
0.19405 
0.11427 
0.11052 
0.04414 
0.12014 
0.15357 
0.09835 
0.16414 
0.17696 
0.15907 
0.18810 
0.12576 
0.10193 
0.07410 
0.09211 
0.06765 
0.09608 
0.07601 
0.01853 
0.05221 
0.16958 
0.18258 
0.14264 
0.14452 
0.20844 
0.14073 
0.19975 
0.07585 
0.11784 
0.13195 
0.13954 
0.13082 
0.06029 
0.06013 
0.15834 
0.09144 
0.08581 
0.15163 
0.12031 
0.13099 
0.09579 
0.07765 
0.10203 
0.09477 
0.20992 
0.05592 
0.19520 
0.22533 
0.15101 
0.15995 
0.15609 
0.16080 
0.05007 
0.17317 
0.06997 
0.15493 
0.14781 
0.17939 
0.16482 
0.14223 
0.11583 
0.12371 
0.13580 
0.09208 
0.19473 
0.13980 
0.15560 
0.09023 
0.11916 
0.13602 
0.14507 
0.10354 
0.10054 
0.04056 
0.05853 
0.12249 
0.09462 
0.19729 
0.08901 
0.15978 
0.10390 
0.05117 
0.12913 
0.19189 
0.11186 
0.15662 
0.09713 
0.07570 
0.05466 
0.18228 
0.09409 
0.03928 
0.04266 
0.07604 
0.07820 
0.04249 
0.15426 
0.13860 
0.07860 
0.10306 
0.10025 
0.12031 
0.15618 
0.12677 
0.14871 
0.14169 
0.12889 
0.17602 
0.16131 
0.12308 
0.14576 
0.07848 
0.07517 
0.11594 
0.07592 
0.10311 
0.18842 
0.11151 
0.15486 
0.08401 
0.12096 
0.14698 
0.14155 
0.13425 
0.10794 
0.09670 
0.17560 
0.07326 
0.03401 
0.07560 
0.10156 
0.12890 
0.10405 
0.11664 
0.10032 
0.09847 
0.04705 
0.06135 
0.12555 
0.05671 
0.08502 
0.10237 
0.11174 
0.15069 
0.09362 
0.14640 
0.06918 
0.15966 
0.11265 
0.20029 
0.15777 
0.18153 
0.07715 
0.10750 
0.11423 
0.07401 
0.05408 
0.06136 
0.02579 
0.14137 
0.12164 
0.13276 
0.15926 
0.04919 
0.15552 
0.24603 
0.07465 
0.07138 
0.07073 
0.15169 
0.10186 
0.12596 
0.10569 
0.12622 
0.08110 
0.06010 
0.04240 
0.21363 
0.08550 
0.12329 
0.13051 
0.14902 
0.07513 
0.08525 
0.09503 
0.08688 
0.11802 
0.12794 
0.20345 
0.18489 
0.09897 
0.07863 
0.06451 
0.13466 
0.08925 
0.14443 
0.11687 
0.04587 
0.07051 
0.11245 
0.17998 
0.22362 
0.04773 
0.16272 
0.12170 
0.10803 
0.11877 
0.11742 
0.04641 
0.18773 
0.10224 
0.16681 
0.09209 
0.17781 
0.10575 
0.18325 
0.23630 
0.14817 
0.04630 
0.20890 
0.02870 
0.06266 
0.08300 
0.08121 
0.10505 
0.15606 
0.07948 
0.11165 
0.07749 
0.05927 
0.06695 
0.10972 
0.01756 
0.11483 
0.05834 
0.04173 
0.13823 
0.11244 
0.04656 
0.16791 
0.12775 
0.09770 
0.09044 
0.10583 
0.15625 
0.08702 
0.10852 
0.18018 
0.14087 
0.14121 
0.07481 
0.17323 
0.12652 
0.21482 
0.10410 
0.13293 
0.08530 
0.09000 
0.16875 
0.12656 
0.09814 
0.11031 
0.10079 
0.10603 
0.19045 
0.07431 
0.09152 
0.07386 
0.12745 
0.17625 
0.14327 
0.21459 
0.04840 
0.16430 
0.12124 
0.10476 
0.08865 
0.07699 
0.14738 
0.10565 
0.10633 
0.15613 
0.09020 
0.21226 
0.10433 
0.11482 
0.11275 
0.09164 
0.16249 
0.09822 
0.17892 
0.14430 
0.12891 
0.16043 
0.07463 
0.23494 
0.16258 
0.18334 
0.16462 
0.16227 
0.13043 
0.05704 
0.06880 
0.21402 
0.07187 
0.13062 
0.18079 
0.07085 
0.12961 
0.08803 
0.13588 
0.16706 
0.15065 
0.06667 
0.09885 
0.15384 
0.05078 
0.03387 
0.10792 
0.13760 
0.12045 
0.09141 
0.14495 
0.11558 
0.16527 
0.20064 
0.06485 
0.23254 
0.02607 
0.15159 
0.13961 
0.05768 
0.02223 
0.05863 
0.08433 
0.05782 
0.07293 
0.02763 
0.05220 
0.05730 
0.22009 
0.01602 
0.08295 
0.18003 
0.15010 
0.14393 
0.09902 
0.11256 
0.18237 
0.17932 
0.13816 
0.07056 
0.05806 
0.11570 
0.14357 
0.12848 
0.18422 
0.08674 
0.13970 
0.15955 
0.25956 
0.13622 
0.02943 
0.10568 
0.12676 
0.07071 
0.09028 
0.18375 
0.14787 
0.17792 
0.22971 
0.11133 
0.06523 
0.23333 
0.06176 
0.07178 
0.11785 
0.14949 
0.14622 
0.05974 
0.12305 
0.06068 
0.09100 
0.07896 
0.15789 
0.05409 
0.11776 
0.20536 
0.16097 
0.05183 
0.07647 
0.22960 
0.07612 
0.07510 
0.08239 
0.15100 
0.12585 
0.04869 
0.10147 
0.17087 
0.05460 
0.03607 
0.08386 
0.11511 
0.08754 
0.07809 
0.12896 
0.06281 
0.09401 
0.11653 
0.15686 
0.16603 
0.15412 
0.08958 
0.09786 
0.10098 
0.16077 
0.10406 
0.08290 
0.11194 
0.08919 
0.14208 
0.08252 
0.10589 
0.12840 
0.05721 
0.07529 
0.18445 
0.11362 
0.15317 
0.09249 
0.12966 
0.07363 
0.12824 
0.14391 
0.10403 
0.03847 
0.11901 
0.08997 
0.14289 
0.18354 
0.20090 
0.19546 
0.09243 
0.16172 
0.19300 
0.12265 
0.18976 

 VECTORS Umean float 
-0.01000 0.11550 -0.07500 
-0.02500 0.07650 -0.06550 
-0.02250 0.15050 0.05650 
-0.02500 0.05150 -0.07550 
0.03700 0.10050 0.04700 
-0.02750 0.05050 0.01800 
0.03700 0.14050 -0.08300 
-0.02700 0.01500 -0.01800 
0.06000 0.08950 -0.04200 
0.10250 0.11250 -0.09250 
0.05650 0.07550 0.02500 
-0.01500 0.06950 -0.06950 
0.01400 0.08950 -0.01900 
-0.07200 0.02450 -0.07950 
0.05800 0.05850 -0.04200 
0.06400 0.10600 -0.06400 
0.02450 0.02150 -0.05000 
0.02850 -0.03300 -0.03500 
-0.02050 0.05900 -0.02050 
0.01450 0.11000 -0.03050 
0.02250 0.09100 0.00900 
-0.03300 0.04450 -0.05050 
0.13850 0.09500 -0.02800 
-0.00500 0.09800 -0.06700 
-0.07300 0.05500 -0.10300 
0.02950 0.09550 0.02100 
0.04650 0.09200 -0.03000 
0.08300 0.04550 0.03050 
-0.00950 0.13100 0.02700 
-0.02550 0.11050 -0.06300 
0.07000 0.05900 -0.00200 
0.08400 0.09850 -0.10250 
0.04600 0.07600 -0.06700 
-0.06750 -0.00850 -0.06600 
0.04000 0.15150 -0.03800 
-0.02200 0.07300 -0.03850 
-0.00550 0.02300 -0.04750 
0.00150 0.03550 -0.06950 
-0.11000 0.05100 -0.04850 
0.06350 0.01000 -0.02250 
0.03950 0.08450 -0.08300 
0.03250 0.04350 -0.03550 
0.01550 0.07650 -0.10500 
0.03900 0.14700 -0.09600 
0.06150 0.14150 -0.10250 
0.01000 0.15100 -0.01850 
0.05750 0.12500 -0.04300 
0.09800 0.17500 0.01400 
0.00650 0.13250 -0.03900 
0.07100 0.11900 0.02450 
0.01550 0.13450 -0.03100 
0.01000 0.15200 -0.07350 
0.03200 0.08650 -0.04200 
0.00900 0.14350 -0.01950 
0.02450 0.03500 -0.03350 
0.03600 0.18600 -0.04200 
-0.05850 0.09650 -0.01800 
-0.02550 0.09900 -0.04200 
-0.03600 -0.01650 -0.01950 
0.02200 0.11000 -0.04300 
0.01600 0.04800 -0.14500 
0.00900 0.09400 0.02750 
0.09000 0.13650 0.01450 
0.04800 0.11350 -0.12700 
0.01000 0.15850 0.00900 
0.08800 0.14600 0.07950 
0.09200 -0.03450 -0.07850 
0.02350 0.09900 -0.00600 
-0.06300 -0.00100 -0.03900 
-0.03000 0.08100 -0.03200 
-0.00950 0.06650 0.00800 
0.08250 0.04800 0.01100 
-0.02100 0.05550 -0.04750 
-0.00100 0.01850 0.00050 
0.00500 0.00700 0.05150 
-0.00850 0.16300 -0.04600 
0.01500 0.18150 0.01300 
0.06000 0.12500 0.03350 
0.02700 0.13250 0.05100 
0.04650 0.19000 -0.07200 
0.06200 0.12000 -0.03950 
0.06650 0.14800 -0.11650 
0.04350 0.03550 -0.05100 
-0.05400 0.07700 -0.07100 
0.03650 0.11250 0.05850 
-0.00250 0.13100 -0.04800 
0.02350 0.12750 0.01750 
0.05200 0.02500 0.01750 
-0.04650 0.00300 -0.03800 
0.05250 0.12250 0.08550 
0.02250 0.06950 -0.05500 
0.00350 0.08050 0.02950 
0.04100 0.13950 -0.04300 
0.02100 0.11800 -0.01050 
-0.01600 0.13000 0.00150 
0.03700 0.07450 -0.04750 
0.04850 0.05900 -0.01400 
-0.05600 0.04800 -0.07050 
0.02650 0.07850 -0.04600 
0.12700 0.15600 -0.06000 
0.04050 0.03800 -0.00650 
0.03350 0.17200 0.08600 
0.05750 0.17100 -0.13500 
0.03000 0.14000 -0.04800 
0.02800 0.14950 -0.04950 
0.02600 0.13550 -0.07300 
0.12100 0.06450 0.08400 
-0.01650 0.04500 0.01450 
0.07600 0.11750 -0.10200 
-0.02850 0.03850 -0.05100 
0.00650 0.11900 -0.09900 
0.08500 0.10100 0.06650 
0.11200 0.13400 0.04100 
0.00400 0.12400 -0.10850 
0.04650 0.11350 0.07200 
0.05000 0.04350 0.09500 
0.00100 0.08100 -0.09350 
-0.04350 0.08450 -0.09700 
0.03950 0.04250 -0.07150 
0.05550 0.18650 -0.00750 
0.11550 0.04300 -0.06600 
0.03000 0.15250 -0.00750 
0.02700 0.07750 -0.03750 
0.05350 0.09400 -0.05000 
0.11550 0.03950 0.06000 
0.00650 0.12150 -0.07900 
-0.02650 0.09500 -0.03150 
0.03050 0.09400 -0.01850 
-0.02200 0.03150 0.01300 
0.00100 0.04900 0.03200 
0.11750 0.02750 -0.02100 
-0.06550 -0.03350 -0.05950 
0.08900 0.17350 0.03000 
-0.04350 0.02650 -0.07300 
0.01050 0.15250 -0.04650 
0.03850 0.02750 -0.09250 
0.01900 0.04750 -0.00100 
0.02750 0.12550 0.01300 
0.06250 0.16900 -0.06600 
-0.08600 0.05600 -0.04450 
-0.04150 0.10950 -0.10400 
0.02750 0.09150 -0.01750 
0.06450 -0.03450 -0.01950 
0.05450 0.00300 -0.00300 
0.04700 0.14600 -0.09850 
-0.05750 0.07050 -0.02400 
0.00950 0.03800 0.00300 
0.04200 -0.00450 0.00600 
-0.00300 0.06550 -0.03850 
0.05750 0.04500 -0.02800 
-0.03300 0.02250 -0.01450 
0.04700 0.11250 -0.09450 
-0.08800 -0.00400 -0.10700 
0.07500 0.00950 0.02150 
0.04600 0.05700 -0.07250 
-0.04050 0.08300 -0.03900 
-0.02300 0.01600 -0.11700 
-0.06300 0.14150 0.02000 
0.07950 0.08300 -0.05350 
0.00800 0.10600 -0.10400 
-0.01450 0.05900 -0.12800 
0.06950 0.08500 0.06750 
0.07450 0.14650 -0.06300 
0.09800 0.11400 -0.05850 
-0.03200 0.08650 -0.08150 
-0.10050 0.05600 -0.08950 
0.05150 0.04500 -0.03850 
-0.02900 0.05100 -0.04700 
0.07900 0.07900 -0.03100 
0.04000 0.06350 0.01150 
0.04050 0.06950 -0.06450 
0.14050 0.10250 -0.07250 
0.00100 0.11150 -0.00150 
0.05100 0.14550 0.01450 
0.04400 0.07150 -0.00300 
0.03400 0.10250 0.05450 
0.02800 0.13400 0.05350 
0.09100 0.08150 -0.07150 
0.04200 0.12650 -0.01600 
0.06600 0.07350 -0.04350 
0.01850 0.05550 0.07700 
0.07350 0.15300 0.04500 
-0.01700 0.05400 -0.04650 
-0.00550 0.03350 -0.00200 
0.01250 0.07350 -0.01250 
0.00850 0.09950 -0.01850 
-0.00500 0.10250 0.07800 
0.01950 0.08550 0.05600 
-0.06450 0.02650 -0.09350 
0.00800 0.10000 -0.00050 
0.07800 -0.00850 0.05950 
0.03700 0.01900 0.02200 
0.04650 0.00900 -0.03900 
0.01600 0.12450 0.00250 
-0.04800 0.02950 -0.00650 
0.00850 0.07400 -0.04100 
0.02150 0.09500 0.03150 
0.04800 0.10000 0.01350 
0.00750 0.14550 0.03850 
-0.04500 -0.02050 -0.07950 
0.03700 0.14100 -0.01350 
0.05750 0.03450 -0.01700 
0.04200 0.14250 -0.05850 
-0.00900 0.08700 -0.07100 
0.13550 0.12550 0.07750 
-0.01050 0.13250 -0.08500 
0.08050 0.09650 -0.13100 
-0.01550 0.07550 0.00350 
0.07200 0.07850 -0.01450 
0.04750 0.05100 -0.09050 
0.04500 -0.00550 -0.05850 
-0.02150 0.03750 -0.03250 
0.02350 0.04250 -0.03750 
0.02500 -0.00600 -0.00200 
0.10050 0.09750 -0.01950 
0.10650 0.05800 0.00950 
0.00800 0.13250 0.00250 
0.03900 0.11850 -0.09900 
-0.00850 0.03350 -0.03500 
0.09100 0.11300 -0.05600 
0.09600 0.09950 -0.20350 
0.02600 0.05400 -0.04450 
0.03850 0.05150 -0.03100 
-0.01600 -0.06250 -0.02900 
0.06200 0.07400 -0.11700 
0.07000 0.04950 -0.05500 
-0.05150 0.10900 -0.03650 
0.03300 0.04550 0.08950 
0.09250 0.07750 0.03700 
-0.06850 0.03400 -0.02700 
0.02550 0.05000 -0.02150 
0.03300 0.02350 -0.01250 
0.09400 0.17900 -0.06900 
0.03700 0.05500 0.05400 
-0.05700 0.08000 -0.07450 
0.02500 0.12800 0.00500 
0.08300 0.11900 -0.03400 
0.01600 0.04300 -0.05950 
0.06850 0.00500 -0.05050 
-0.03450 -0.00300 -0.08850 
0.04050 0.01150 -0.07600 
0.04550 0.07050 -0.08300 
0.01900 0.12650 -0.00250 
0.06200 0.10400 -0.16350 
0.00800 0.17400 0.06200 
-0.07250 0.06600 0.01350 
-0.04550 0.01200 -0.06300 
0.05400 0.00450 -0.03500 
-0.05000 0.11050 -0.05850 
-0.00650 0.08650 -0.02100 
0.08450 0.10000 -0.06100 
0.02200 0.11450 0.00800 
0.01700 0.04250 0.00300 
0.01550 0.06500 -0.02250 
0.10550 0.01700 0.03500 
0.06950 0.15750 0.05250 
0.13550 0.12250 -0.12900 
-0.03850 0.02450 -0.01400 
0.05150 0.14750 0.04550 
-0.03750 0.11550 0.00800 
-0.04700 0.09400 -0.02500 
0.02050 0.04250 -0.10900 
0.07850 0.08000 0.03500 
0.00850 0.04500 0.00750 
-0.13900 0.06000 -0.11100 
-0.03400 0.08750 -0.04050 
0.10800 0.12050 -0.04050 
0.02850 0.07600 -0.04350 
0.10700 0.12600 -0.06550 
0.05200 0.07700 -0.05050 
0.04950 0.14900 -0.09450 
0.17150 0.12150 -0.10800 
0.02800 0.12700 0.07100 
-0.02450 0.02900 -0.02650 
0.07650 0.18600 -0.05650 
0.01950 0.02100 0.00150 
-0.00850 0.06150 0.00850 
-0.02400 0.07900 -0.00850 
0.01850 0.05150 -0.06000 
0.06500 0.08150 0.01300 
0.09500 0.11800 -0.03750 
-0.00450 0.05250 -0.05950 
0.04000 0.10300 0.01600 
0.02500 0.06600 -0.03200 
0.02500 0.03800 0.03800 
-0.02950 0.04250 -0.04250 
-0.01750 0.10300 -0.03350 
-0.00400 0.00450 -0.01650 
0.04550 0.10300 0.02250 
-0.01000 0.02650 -0.05100 
0.01450 0.03850 -0.00700 
-0.00650 0.12750 -0.05300 
-0.03100 -0.02350 -0.10550 
0.00500 0.04150 0.02050 
0.01650 0.16400 -0.03200 
-0.04200 0.08850 -0.08200 
0.06150 0.04650 -0.06000 
0.03800 0.07300 0.03750 
0.04100 0.06300 -0.07450 
0.04200 0.13550 0.06550 
0.05800 0.06300 -0.01550 
0.04800 0.09600 0.01600 
0.06500 0.15300 -0.06950 
-0.01500 0.13550 -0.03550 
-0.02400 0.10900 -0.08650 
-0.00300 0.06250 0.04100 
0.03300 0.14700 -0.08550 
-0.03750 0.07950 -0.09100 
0.06600 0.17450 -0.10650 
-0.04400 0.08000 -0.05000 
0.05750 0.11400 -0.03700 
-0.04000 0.07250 -0.02050 
0.00850 0.08350 -0.03250 
0.03800 0.11750 -0.11500 
0.09100 0.03050 -0.08250 
0.02950 0.06100 -0.07100 
0.08600 0.00350 -0.06900 
-0.08150 0.05400 0.02450 
0.05350 0.05900 0.07000 
0.09800 0.16300 0.01000 
-0.02050 0.05000 -0.05100 
-0.05050 0.00700 -0.07600 
0.02500 0.06950 -0.00000 
-0.02750 0.08750 -0.08850 
0.05050 0.14350 -0.08900 
0.09350 0.10650 0.02100 
-0.04050 0.18300 -0.10450 
0.02650 0.03550 -0.01950 
0.05200 0.15050 0.04050 
-0.00250 0.09600 -0.07400 
0.06100 0.07200 0.04550 
-0.01400 0.05750 -0.06600 
0.01950 0.07100 0.02250 
0.04450 0.12350 0.06700 
-0.04300 -0.00000 -0.09650 
0.00650 0.10350 -0.02350 
0.12350 0.09400 -0.01700 
-0.05750 -0.00000 -0.06950 
0.11450 0.17850 0.00900 
0.07200 0.07550 0.00100 
0.07400 0.08650 -0.01500 
0.02800 0.08850 -0.06400 
0.08450 0.01300 -0.03300 
0.08250 0.13400 -0.04050 
0.04600 0.07850 -0.03700 
0.01600 0.12450 -0.12750 
0.12550 0.04400 -0.05600 
-0.05050 0.01200 -0.11800 
0.01400 0.15350 -0.04450 
-0.04300 -0.02300 -0.05650 
0.18550 0.14350 0.01400 
0.08000 0.13350 -0.04700 
0.05850 0.12800 -0.11750 
0.07950 0.14100 -0.03000 
0.09200 0.12550 -0.04600 