# vtk DataFile Version 2.0 
Xm, Ym, Zm, Uvecs, timestep 10182 
ASCII 
 
DATASET POLYDATA POINTS 459 float 
  2.897  -4.297 -71.637 
  1.812   6.965 -70.116 
  1.137  -4.194 -70.139 
 -6.728   4.173 -73.250 
  0.216  -8.226 -71.712 
  3.044   4.757 -71.764 
  1.119  -7.752 -67.209 
 -7.126   8.204 -71.424 
  4.019   6.219 -70.391 
  4.736  -6.143 -68.660 
  0.098  -3.075 -70.031 
 -1.001   4.253 -71.799 
  2.910   9.721 -66.965 
  0.062  -4.404 -69.061 
 -6.954  12.157 -71.768 
  3.757   4.870 -68.161 
  0.223   5.188 -69.011 
 -8.704  -4.961 -69.978 
 -0.977   6.571 -72.476 
  3.990  -7.008 -71.172 
  0.655   6.514 -70.878 
  2.389   2.857 -70.591 
  3.599   6.995 -70.750 
  2.335   5.646 -69.725 
 13.023   2.513 -74.446 
  9.622   6.059 -71.273 
  6.918  -3.285 -69.710 
  5.753  -4.869 -72.185 
 10.970   4.184 -69.438 
  1.188  -1.938 -67.768 
 -3.992  -0.878 -73.309 
  1.363  -8.258 -71.507 
-12.231   7.448 -73.904 
 -6.760   6.444 -70.376 
  1.434  -7.560 -71.144 
  5.137   9.831 -67.544 
  7.402   3.854 -71.816 
  3.176  -4.742 -68.436 
  1.796   5.517 -72.475 
  2.507   0.607 -73.040 
-11.451   8.720 -67.234 
 -9.333   5.332 -69.190 
  5.828  -0.147 -67.359 
  5.853   4.499 -75.297 
  0.833  -7.835 -71.747 
  4.311   6.260 -62.864 
 -2.313  10.645 -72.382 
  7.246   1.546 -69.034 
  3.469  -7.418 -72.343 
  4.214   1.313 -70.959 
 -5.433  -4.938 -68.280 
 -2.846   5.925 -66.739 
  1.576   2.874 -68.307 
  4.018   3.676 -70.698 
  1.856   9.721 -71.728 
  0.061   8.174 -66.169 
  1.334   3.256 -67.868 
  0.194  -5.061 -72.102 
  8.152  -9.506 -75.138 
 -4.813   7.449 -64.493 
 13.167  -3.877 -69.359 
 -4.919   7.480 -67.285 
  8.166  -0.633 -71.922 
 -6.542  10.118 -63.710 
 -5.226   6.223 -68.239 
 10.358   9.794 -68.820 
 -2.053   3.704 -64.291 
 -5.787  -0.980 -65.831 
  7.454   9.111 -66.293 
  3.093   6.760 -69.804 
  9.229 -11.068 -69.043 
 13.173  -7.056 -70.772 
  4.889  11.388 -72.495 
 -1.954   1.127 -60.428 
  6.433  11.015 -69.982 
 -5.251  10.559 -68.310 
 -9.998  -1.779 -67.537 
 -1.647  -7.845 -68.729 
  3.779 -10.739 -68.470 
  0.581   1.248 -74.272 
  3.364  -6.900 -66.396 
 12.127   8.473 -71.834 
 -1.462  -9.023 -67.757 
  0.720   7.943 -65.947 
 -0.924   8.019 -64.767 
 -8.423  -4.014 -67.602 
 -2.974  -9.825 -63.647 
 -7.882  11.885 -74.078 
  4.926   3.095 -67.193 
  1.394   6.485 -70.398 
 -2.166   3.076 -64.226 
 -5.530   5.240 -73.136 
 -6.751  -6.236 -70.659 
-10.877  -4.821 -73.721 
  1.994   3.285 -74.185 
 -2.630  -1.335 -66.756 
 -4.968   8.008 -64.744 
 -6.511   3.585 -62.016 
 -7.143  -7.860 -62.090 
 -6.963  -2.793 -64.325 
 -1.104  -2.383 -64.816 
 -9.273   9.677 -67.572 
-11.024  -3.240 -65.921 
 -0.453   3.380 -67.688 
  3.550  -1.038 -66.382 
 -2.302   8.938 -74.001 
 15.217  -4.133 -70.026 
 -1.962  -8.416 -68.323 
 -1.595  -9.674 -65.041 
  7.422  -2.491 -63.782 
 -5.778  -2.122 -68.484 
 -3.667  -7.889 -62.937 
 -6.201 -12.651 -66.394 
 11.240  -0.200 -72.860 
-11.544   5.880 -68.387 
  4.559   2.067 -61.304 
 -4.817   2.566 -72.699 
  4.604   7.791 -65.231 
  7.806  -4.441 -67.162 
-10.238  -9.870 -68.576 
  7.396  -0.365 -66.419 
 -7.933  -7.057 -65.855 
-11.454   1.788 -63.446 
 -9.742   7.917 -65.233 
 10.772  -6.152 -67.558 
 -6.794  -3.657 -61.567 
 -2.390   6.305 -71.510 
 -6.433  -4.831 -63.630 
 -5.812   9.010 -74.171 
 -6.354   2.902 -62.442 
 -9.893  12.207 -72.150 
 -0.657 -11.477 -68.987 
 -3.437   1.137 -62.507 
  6.960   3.386 -63.168 
  3.394   9.676 -64.958 
 -0.663   1.329 -62.135 
 12.695  -9.858 -73.532 
  6.517  -6.171 -63.492 
-11.537  -5.472 -70.864 
 -4.298   3.677 -63.811 
  7.666   3.280 -63.630 
  8.813  -3.785 -63.055 
  2.751   2.309 -59.011 
  7.498   6.167 -69.715 
-10.942  -7.802 -69.072 
  3.243  -2.392 -60.753 
 -9.998  -4.168 -62.910 
  4.997   0.332 -73.611 
-10.783  -2.245 -72.528 
  9.544  -7.160 -72.771 
 12.473   7.431 -63.481 
 -7.415   4.045 -67.170 
 -5.594  -8.913 -62.178 
  2.938  11.803 -69.541 
  6.119  -5.399 -66.448 
 -5.194 -10.315 -72.469 
  7.309   0.607 -66.188 
 10.858   9.318 -71.405 
-13.277   5.598 -68.770 
  6.684  10.235 -68.654 
  1.448  -2.572 -65.817 
 -9.566   8.654 -68.899 
 10.434   0.271 -72.856 
  2.314  -6.194 -67.287 
  9.628  -2.512 -64.179 
 -5.543 -10.960 -63.254 
  8.046  -6.859 -65.888 
  2.609  -9.602 -69.754 
 10.493   3.031 -71.324 
 -4.528  -5.210 -61.287 
  1.530  -6.656 -63.492 
 -5.066  -0.952 -67.031 
 13.740   2.880 -66.909 
  9.871   8.572 -66.519 
  3.170  -1.369 -71.250 
-12.377  12.218 -69.557 
 -0.443 -12.647 -69.215 
 -4.478  -6.755 -62.377 
-12.623   5.332 -69.302 
  1.460  -0.488 -63.107 
 -7.345  11.096 -67.395 
 -3.808   2.503 -65.540 
  6.839   0.688 -65.023 
 15.534   6.595 -71.636 
 13.073 -10.000 -68.715 
 -7.775  -1.784 -76.364 
  1.625   9.861 -75.428 
  9.993   4.240 -66.432 
  5.175   0.611 -63.002 
  8.104 -12.485 -73.823 
  3.348 -11.192 -70.841 
  0.934   9.329 -63.591 
  4.171  -5.185 -67.970 
 -9.177  -2.303 -63.496 
 -9.274  -3.111 -68.716 
 -6.871  10.877 -63.392 
-11.921   2.979 -64.117 
  7.178   6.973 -71.190 
 -6.604   6.324 -68.967 
 13.448   0.617 -68.721 
  4.158  -0.623 -73.809 
 -4.974   3.320 -75.143 
 -7.821  -0.216 -67.064 
  6.612  -9.640 -70.328 
  9.270   6.363 -74.786 
-11.913  10.213 -66.041 
-10.044   5.284 -62.079 
 11.869  11.057 -69.382 
 -0.771   4.664 -62.916 
  7.951 -11.808 -69.099 
 -2.451  -1.242 -64.725 
 -0.345  -9.761 -62.343 
-10.191  -8.744 -67.881 
  2.898   7.360 -64.783 
  8.398   5.934 -67.614 
  6.957  -8.974 -65.477 
  4.713   5.059 -64.428 
 -2.803 -10.714 -71.506 
 11.517  -3.414 -67.776 
  2.380   3.013 -68.262 
  8.646  -7.889 -71.775 
 14.426   6.707 -69.784 
 -9.482  11.314 -64.109 
  2.298  -6.712 -64.819 
 -1.209  -9.413 -71.034 
  8.862 -12.584 -68.608 
 -3.543   5.796 -66.558 
  0.960   2.299 -64.453 
  8.837   9.762 -65.309 
 -6.482  11.399 -62.052 
 14.037   7.136 -73.499 
  7.879  -0.838 -66.154 
  1.824  -3.918 -66.282 
 -0.597   3.630 -64.094 
  8.639   1.438 -64.249 
-10.024  -1.245 -63.487 
 11.617   6.886 -60.603 
 11.967 -10.389 -73.873 
  7.410  -8.341 -72.336 
  2.521  -4.530 -73.025 
 -6.738  -5.064 -60.733 
  6.848  -5.852 -70.617 
 -1.283  -3.506 -72.885 
  8.362  -2.773 -63.505 
  3.330  -8.492 -64.388 
 10.274   7.397 -65.575 
 12.043   8.915 -67.627 
  9.204   3.516 -75.162 
 -9.653   0.575 -74.517 
 12.909  10.049 -65.442 
  0.821   4.732 -72.728 
 10.724  -4.090 -65.996 
  4.766   7.473 -72.754 
 -3.045 -10.995 -70.779 
 13.067  -5.314 -71.725 
-10.268   8.971 -69.801 
-14.153  -5.398 -70.098 
  8.047  10.125 -64.554 
  8.104   9.211 -64.678 
  4.284  -7.104 -73.959 
  3.857  10.791 -63.630 
 -1.518  -1.200 -73.329 
 13.579  -5.661 -70.573 
  2.077  -0.551 -65.995 
-11.108  -8.091 -74.662 
  2.797  -2.232 -73.607 
 10.778 -12.322 -70.514 
 -9.228   8.037 -73.777 
 11.192   3.186 -65.990 
  4.015   4.179 -64.533 
 13.218   9.320 -69.152 
-12.650   5.584 -66.034 
 13.945  -8.555 -71.525 
 -5.299   8.776 -74.416 
 -9.701  -5.031 -73.173 
 -2.427   9.805 -71.652 
 -8.377   3.373 -76.761 
 12.146   7.336 -72.669 
-11.325 -11.816 -70.579 
  6.274  -7.120 -73.948 
  1.430   6.513 -64.406 
  6.742  -6.386 -72.804 
  1.972   4.248 -65.883 
 -8.043  -1.285 -66.469 
  4.419  -9.366 -61.689 
 -1.470  -5.922 -66.828 
 -1.721  -2.656 -71.169 
 -3.789  -7.265 -70.282 
 13.585  10.716 -72.805 
 -7.688   8.056 -69.907 
 13.971  -3.133 -69.202 
 -8.530  -2.657 -73.813 
 -4.524 -11.041 -62.881 
 -8.562  -0.841 -60.954 
-13.605   6.264 -74.965 
 -8.781  -8.743 -68.770 
  5.523   9.008 -70.867 
 -9.534  -6.576 -62.644 
  0.220  -2.639 -63.931 
  1.869   8.051 -74.924 
  0.084  -1.923 -70.201 
 -9.030  -1.475 -74.523 
 -6.780  -3.816 -64.738 
  3.136  -5.002 -74.695 
  2.362 -12.192 -76.778 
 -9.730 -11.392 -71.752 
 12.739  -6.325 -64.490 
 -4.661  -0.483 -65.568 
 -2.963   3.416 -75.317 
-11.015  -4.682 -61.105 
 -1.793  -6.577 -68.005 
  5.803  11.314 -67.346 
  9.897   8.370 -71.525 
  2.278 -12.465 -62.595 
 -7.142  -3.166 -68.186 
 -2.876  -3.973 -68.982 
  7.261   8.309 -71.731 
 13.180  -8.386 -63.854 
 -0.231   5.981 -62.597 
-12.060  -7.719 -63.063 
  5.101   0.767 -59.798 
-12.797 -10.759 -69.989 
-13.726  11.057 -68.987 
 17.020 -11.388 -69.980 
 10.496   1.864 -57.981 
 10.454  -1.883 -65.087 
  1.811 -10.302 -61.931 
 -8.194   1.887 -62.270 
  2.571  -7.410 -71.220 
-11.663 -10.972 -64.750 
  3.826   6.859 -65.853 
  1.616  11.916 -65.782 
 -5.142   2.240 -76.838 
 -4.484  -9.839 -62.325 
  6.808   0.887 -73.932 
 -7.233   7.414 -59.766 
-11.083   6.624 -66.087 
  6.584  -3.059 -72.096 
 -3.263  -7.723 -70.267 
 -5.639 -11.910 -62.450 
 -3.369   8.160 -64.856 
-11.646   5.504 -61.346 
 12.890  -4.638 -65.864 
 -5.215  -9.313 -72.006 
 -8.694   9.316 -65.268 
  0.665  -9.081 -61.045 
  8.288  -5.665 -65.600 
 -1.833  -1.471 -56.638 
 12.801  13.034 -68.112 
-12.519   5.177 -67.609 
 11.663  -1.966 -66.326 
 15.708  -1.793 -68.685 
 14.715  -4.980 -64.859 
 16.797   7.783 -72.415 
-11.866  10.762 -69.356 
  1.468 -10.976 -67.838 
 10.733   6.958 -70.621 
  6.498  -5.037 -61.717 
  6.325  -0.612 -65.844 
  5.745   8.486 -60.760 
-12.734 -12.439 -69.612 
  3.468  -9.779 -73.813 
  5.810 -11.409 -77.608 
 16.718 -13.150 -69.648 
 -0.739   7.623 -59.447 
  0.935  -8.520 -55.701 
 -0.416  -0.607 -66.945 
 -2.824   3.409 -68.366 
 -7.442 -10.726 -71.210 
  0.579   2.457 -71.138 
-12.546 -10.851 -65.171 
 -2.035 -10.336 -69.970 
  9.523  -8.540 -69.627 
 -3.938  10.006 -64.875 
 -3.668   3.779 -65.238 
 -8.766   6.069 -60.922 
 14.959  -5.051 -67.927 
  4.153 -10.031 -73.348 
  7.815   8.819 -65.197 
  8.203 -13.118 -65.313 
 -2.399   7.856 -74.971 
  7.488  -8.154 -64.002 
-12.489 -11.787 -66.405 
  3.083  -3.653 -74.608 
-13.210 -12.585 -65.073 
 11.549  -2.938 -63.511 
 -3.511 -12.846 -68.828 
-14.275  -3.896 -66.238 
 11.103   0.312 -60.418 
 10.454  -8.523 -64.188 
 11.555 -11.880 -60.818 
 -1.724   7.751 -61.676 
 14.866 -13.127 -70.880 
 -1.064   0.954 -71.934 
 -4.911   0.126 -59.501 
  6.335  11.969 -61.364 
 12.054   2.200 -63.047 
 10.788 -10.151 -69.563 
  7.504   0.418 -57.262 
 18.177  -4.751 -68.950 
 -1.912  -5.577 -70.582 
 -8.835  12.521 -64.158 
  7.995   9.973 -62.101 
 -1.837   7.625 -69.426 
 -7.598  -6.591 -66.292 
 -6.367   1.007 -66.075 
 -1.432   6.513 -74.239 
-11.028  10.616 -59.956 
 13.778  11.204 -73.736 
  3.458   9.301 -69.227 
 14.055   6.902 -70.645 
 10.897   3.410 -69.814 
 -6.341  -3.546 -70.297 
  7.851   5.351 -64.510 
-12.579  10.935 -76.473 
-10.479  -7.016 -61.730 
 -7.373   4.572 -73.304 
 12.538  10.796 -64.356 
 14.747  -7.270 -70.011 
  1.982  -5.439 -62.787 
  4.386  -0.199 -59.448 
 -7.506  -6.298 -68.038 
 -8.300  -9.358 -61.017 
 13.902 -13.123 -66.219 
  4.213   8.330 -61.707 
  7.554  -2.438 -61.247 
-11.394   7.263 -70.238 
 -2.279  -0.816 -67.429 
  2.124  -0.119 -57.529 
 13.390   1.144 -61.509 
  0.718   1.992 -75.566 
  6.328  -0.394 -75.840 
  3.263 -11.540 -65.784 
 12.694  -0.043 -62.967 
 -8.027  -1.235 -57.191 
  7.476   7.932 -72.028 
  8.532 -12.274 -70.377 
  8.971  -3.906 -67.810 
  1.097   2.773 -64.454 
  9.666 -11.785 -65.443 
  9.001  -9.497 -69.696 
  2.434  -4.346 -64.974 
 16.348 -11.198 -65.541 
-12.453  -6.133 -70.642 
 -0.355   5.892 -69.549 
  6.300 -10.169 -72.367 
  8.906   6.695 -71.668 
 -8.413   9.180 -71.445 
 11.961   1.219 -65.874 
 11.214  -8.980 -74.153 
  0.315   9.566 -70.788 
 -7.078   9.012 -74.972 
  2.348   0.160 -61.761 
-11.993  12.381 -64.541 
  1.524  -1.593 -65.495 
-11.084   6.130 -77.260 
  4.882   2.104 -67.760 
 -8.050  10.483 -68.319 
-13.966  -3.755 -64.139 

 VERTICES 459 918 
1 0 
1 1 
1 2 
1 3 
1 4 
1 5 
1 6 
1 7 
1 8 
1 9 
1 10 
1 11 
1 12 
1 13 
1 14 
1 15 
1 16 
1 17 
1 18 
1 19 
1 20 
1 21 
1 22 
1 23 
1 24 
1 25 
1 26 
1 27 
1 28 
1 29 
1 30 
1 31 
1 32 
1 33 
1 34 
1 35 
1 36 
1 37 
1 38 
1 39 
1 40 
1 41 
1 42 
1 43 
1 44 
1 45 
1 46 
1 47 
1 48 
1 49 
1 50 
1 51 
1 52 
1 53 
1 54 
1 55 
1 56 
1 57 
1 58 
1 59 
1 60 
1 61 
1 62 
1 63 
1 64 
1 65 
1 66 
1 67 
1 68 
1 69 
1 70 
1 71 
1 72 
1 73 
1 74 
1 75 
1 76 
1 77 
1 78 
1 79 
1 80 
1 81 
1 82 
1 83 
1 84 
1 85 
1 86 
1 87 
1 88 
1 89 
1 90 
1 91 
1 92 
1 93 
1 94 
1 95 
1 96 
1 97 
1 98 
1 99 
1 100 
1 101 
1 102 
1 103 
1 104 
1 105 
1 106 
1 107 
1 108 
1 109 
1 110 
1 111 
1 112 
1 113 
1 114 
1 115 
1 116 
1 117 
1 118 
1 119 
1 120 
1 121 
1 122 
1 123 
1 124 
1 125 
1 126 
1 127 
1 128 
1 129 
1 130 
1 131 
1 132 
1 133 
1 134 
1 135 
1 136 
1 137 
1 138 
1 139 
1 140 
1 141 
1 142 
1 143 
1 144 
1 145 
1 146 
1 147 
1 148 
1 149 
1 150 
1 151 
1 152 
1 153 
1 154 
1 155 
1 156 
1 157 
1 158 
1 159 
1 160 
1 161 
1 162 
1 163 
1 164 
1 165 
1 166 
1 167 
1 168 
1 169 
1 170 
1 171 
1 172 
1 173 
1 174 
1 175 
1 176 
1 177 
1 178 
1 179 
1 180 
1 181 
1 182 
1 183 
1 184 
1 185 
1 186 
1 187 
1 188 
1 189 
1 190 
1 191 
1 192 
1 193 
1 194 
1 195 
1 196 
1 197 
1 198 
1 199 
1 200 
1 201 
1 202 
1 203 
1 204 
1 205 
1 206 
1 207 
1 208 
1 209 
1 210 
1 211 
1 212 
1 213 
1 214 
1 215 
1 216 
1 217 
1 218 
1 219 
1 220 
1 221 
1 222 
1 223 
1 224 
1 225 
1 226 
1 227 
1 228 
1 229 
1 230 
1 231 
1 232 
1 233 
1 234 
1 235 
1 236 
1 237 
1 238 
1 239 
1 240 
1 241 
1 242 
1 243 
1 244 
1 245 
1 246 
1 247 
1 248 
1 249 
1 250 
1 251 
1 252 
1 253 
1 254 
1 255 
1 256 
1 257 
1 258 
1 259 
1 260 
1 261 
1 262 
1 263 
1 264 
1 265 
1 266 
1 267 
1 268 
1 269 
1 270 
1 271 
1 272 
1 273 
1 274 
1 275 
1 276 
1 277 
1 278 
1 279 
1 280 
1 281 
1 282 
1 283 
1 284 
1 285 
1 286 
1 287 
1 288 
1 289 
1 290 
1 291 
1 292 
1 293 
1 294 
1 295 
1 296 
1 297 
1 298 
1 299 
1 300 
1 301 
1 302 
1 303 
1 304 
1 305 
1 306 
1 307 
1 308 
1 309 
1 310 
1 311 
1 312 
1 313 
1 314 
1 315 
1 316 
1 317 
1 318 
1 319 
1 320 
1 321 
1 322 
1 323 
1 324 
1 325 
1 326 
1 327 
1 328 
1 329 
1 330 
1 331 
1 332 
1 333 
1 334 
1 335 
1 336 
1 337 
1 338 
1 339 
1 340 
1 341 
1 342 
1 343 
1 344 
1 345 
1 346 
1 347 
1 348 
1 349 
1 350 
1 351 
1 352 
1 353 
1 354 
1 355 
1 356 
1 357 
1 358 
1 359 
1 360 
1 361 
1 362 
1 363 
1 364 
1 365 
1 366 
1 367 
1 368 
1 369 
1 370 
1 371 
1 372 
1 373 
1 374 
1 375 
1 376 
1 377 
1 378 
1 379 
1 380 
1 381 
1 382 
1 383 
1 384 
1 385 
1 386 
1 387 
1 388 
1 389 
1 390 
1 391 
1 392 
1 393 
1 394 
1 395 
1 396 
1 397 
1 398 
1 399 
1 400 
1 401 
1 402 
1 403 
1 404 
1 405 
1 406 
1 407 
1 408 
1 409 
1 410 
1 411 
1 412 
1 413 
1 414 
1 415 
1 416 
1 417 
1 418 
1 419 
1 420 
1 421 
1 422 
1 423 
1 424 
1 425 
1 426 
1 427 
1 428 
1 429 
1 430 
1 431 
1 432 
1 433 
1 434 
1 435 
1 436 
1 437 
1 438 
1 439 
1 440 
1 441 
1 442 
1 443 
1 444 
1 445 
1 446 
1 447 
1 448 
1 449 
1 450 
1 451 
1 452 
1 453 
1 454 
1 455 
1 456 
1 457 
1 458 
POINT_DATA 459 
SCALARS MeanU double 1 
LOOKUP_TABLE default
0.27910 
0.07554 
0.17233 
0.14416 
0.13987 
0.09766 
0.25460 
0.13707 
0.06465 
0.19139 
0.28513 
0.13419 
0.11600 
0.13129 
0.16708 
0.07782 
0.05180 
0.15623 
0.19771 
0.15057 
0.14782 
0.12005 
0.05789 
0.11387 
0.23050 
0.17966 
0.28689 
0.14857 
0.09496 
0.22455 
0.16830 
0.13506 
0.19546 
0.10283 
0.19158 
0.08769 
0.11954 
0.21353 
0.14437 
0.23810 
0.18217 
0.06824 
0.07211 
0.21264 
0.13200 
0.10777 
0.13471 
0.07424 
0.27301 
0.20599 
0.11247 
0.10771 
0.13641 
0.06043 
0.06269 
0.05376 
0.14965 
0.18959 
0.10997 
0.11337 
0.21248 
0.06718 
0.13699 
0.19961 
0.20652 
0.09883 
0.08244 
0.17055 
0.16093 
0.11632 
0.07017 
0.17733 
0.16405 
0.05475 
0.11692 
0.12567 
0.15883 
0.12839 
0.11898 
0.31616 
0.21741 
0.15782 
0.13909 
0.07616 
0.11871 
0.16708 
0.10964 
0.18435 
0.08556 
0.10794 
0.12234 
0.16865 
0.17730 
0.22901 
0.20149 
0.27247 
0.08568 
0.11916 
0.13814 
0.13794 
0.20268 
0.09112 
0.15172 
0.14562 
0.07039 
0.17759 
0.13019 
0.14844 
0.02180 
0.28630 
0.20609 
0.23008 
0.15497 
0.25082 
0.13371 
0.09583 
0.12209 
0.11881 
0.19202 
0.13631 
0.18904 
0.12338 
0.09556 
0.18143 
0.14061 
0.21731 
0.10028 
0.18815 
0.08628 
0.11752 
0.10654 
0.11641 
0.05521 
0.14291 
0.05250 
0.06688 
0.06800 
0.07024 
0.11084 
0.06448 
0.12799 
0.22232 
0.03868 
0.18039 
0.13236 
0.13269 
0.06664 
0.23049 
0.21826 
0.10622 
0.11681 
0.17695 
0.09010 
0.23977 
0.24323 
0.15363 
0.14814 
0.15534 
0.12185 
0.09030 
0.12664 
0.15916 
0.21369 
0.12757 
0.25597 
0.17848 
0.08764 
0.27799 
0.10570 
0.26674 
0.21928 
0.20443 
0.15918 
0.03673 
0.23002 
0.14469 
0.09697 
0.06435 
0.18721 
0.04000 
0.11357 
0.18394 
0.15377 
0.36337 
0.08187 
0.09330 
0.08969 
0.10652 
0.13436 
0.11127 
0.09503 
0.17383 
0.15008 
0.19412 
0.12641 
0.17398 
0.10510 
0.06298 
0.12088 
0.10397 
0.25021 
0.16153 
0.21732 
0.09800 
0.30105 
0.13935 
0.11744 
0.18572 
0.08686 
0.04234 
0.13451 
0.14075 
0.16013 
0.11772 
0.08341 
0.10793 
0.12206 
0.08384 
0.20620 
0.16718 
0.08358 
0.21274 
0.18452 
0.28107 
0.14050 
0.08136 
0.13146 
0.07583 
0.07901 
0.15582 
0.22596 
0.22613 
0.28671 
0.21841 
0.05673 
0.27660 
0.11323 
0.09748 
0.14239 
0.18215 
0.15608 
0.13917 
0.15773 
0.29668 
0.13659 
0.12158 
0.17899 
0.18910 
0.12352 
0.19524 
0.19426 
0.22913 
0.29949 
0.12082 
0.21639 
0.19238 
0.09448 
0.05994 
0.15510 
0.32688 
0.09048 
0.25614 
0.17709 
0.21798 
0.18042 
0.14301 
0.07091 
0.16338 
0.11834 
0.09647 
0.11230 
0.18230 
0.07009 
0.14261 
0.06762 
0.16470 
0.10836 
0.18121 
0.08395 
0.15319 
0.15296 
0.07391 
0.11985 
0.10584 
0.08826 
0.18577 
0.20665 
0.13879 
0.09571 
0.06256 
0.09172 
0.10931 
0.12510 
0.30337 
0.08540 
0.15336 
0.15187 
0.19991 
0.18904 
0.11229 
0.21355 
0.09526 
0.16768 
0.28328 
0.11306 
0.16717 
0.17809 
0.19551 
0.14513 
0.09408 
0.11060 
0.20950 
0.16331 
0.07424 
0.15576 
0.15387 
0.20724 
0.12504 
0.04859 
0.07814 
0.07894 
0.11496 
0.23427 
0.15646 
0.11060 
0.12700 
0.06192 
0.10497 
0.19798 
0.17131 
0.12970 
0.12024 
0.20979 
0.14496 
0.19854 
0.07820 
0.13906 
0.21983 
0.05358 
0.14798 
0.10730 
0.02531 
0.19774 
0.16464 
0.15098 
0.11625 
0.11333 
0.15673 
0.13750 
0.19315 
0.11474 
0.21979 
0.25665 
0.21153 
0.21203 
0.16909 
0.17084 
0.18122 
0.19873 
0.15379 
0.13318 
0.14938 
0.11343 
0.11049 
0.12445 
0.13339 
0.18457 
0.20880 
0.13605 
0.19565 
0.05012 
0.13426 
0.04293 
0.14223 
0.17413 
0.14597 
0.21482 
0.16546 
0.14435 
0.09519 
0.22283 
0.13301 
0.07249 
0.17186 
0.10265 
0.22990 
0.24480 
0.20116 
0.19485 
0.05000 
0.14451 
0.14019 
0.17275 
0.29984 
0.18322 
0.16164 
0.16106 
0.08059 
0.16235 
0.13441 
0.21405 
0.09503 
0.18974 
0.13726 
0.09478 
0.29099 
0.13051 
0.08076 
0.13754 
0.10152 
0.12967 
0.14437 
0.12193 
0.09252 
0.20322 
0.12053 
0.17602 
0.23932 
0.09928 
0.22425 
0.10757 
0.12434 
0.12317 
0.08360 
0.04729 
0.22205 
0.16214 
0.21495 
0.16748 
0.18288 
0.17636 
0.21617 
0.22026 
0.22423 
0.26525 
0.18417 
0.06220 
0.12898 
0.11361 
0.08255 
0.03637 
0.23846 
0.09642 
0.12606 
0.09901 
0.08791 
0.27403 
0.11066 
0.10952 
0.22429 
0.07544 
0.13937 
0.10261 
0.11130 
0.05824 
0.24823 
0.10952 
0.10728 
0.12080 

 VECTORS Umean float 
0.01000 0.05950 -0.27250 
-0.03100 -0.01600 -0.06700 
-0.03400 0.03850 -0.16450 
0.07250 0.06550 -0.10600 
0.09750 0.10000 0.00750 
0.02800 -0.06150 -0.07050 
-0.04700 0.06550 -0.24150 
-0.00450 0.04750 -0.12850 
0.01750 -0.03900 -0.04850 
-0.01150 -0.05650 -0.18250 
-0.00450 0.20750 -0.19550 
0.05800 -0.00150 -0.12100 
-0.08950 -0.06600 0.03300 
-0.00800 0.06000 -0.11650 
-0.15400 0.04300 -0.04850 
-0.06300 0.03050 -0.03400 
0.01300 0.00800 -0.04950 
0.04650 0.13400 -0.06550 
0.02750 0.05800 -0.18700 
-0.01050 -0.04750 -0.14250 
-0.01500 -0.00400 -0.14700 
0.06650 -0.02950 -0.09550 
-0.02350 -0.04550 -0.02700 
0.00400 -0.05700 -0.09850 
0.02300 -0.05950 -0.22150 
0.08050 -0.13200 -0.09150 
0.01950 0.15900 -0.23800 
0.08100 0.08450 -0.09150 
-0.00100 0.05950 -0.07400 
0.04100 0.09350 -0.20000 
0.08950 0.12300 -0.07200 
0.10850 0.07400 -0.03150 
0.03500 0.18350 -0.05750 
0.06050 0.05650 -0.06100 
0.13000 0.07100 -0.12150 
-0.06400 -0.05100 0.03150 
-0.00950 0.01250 -0.11850 
0.08150 -0.01850 -0.19650 
0.00350 -0.03300 -0.14050 
0.12450 0.07000 -0.19050 
0.01950 0.16150 0.08200 
0.04200 0.03950 0.03650 
0.00350 0.05500 -0.04650 
0.12950 0.09100 -0.14200 
0.10400 0.07950 -0.01700 
-0.10750 0.00750 -0.00100 
-0.12750 0.04300 0.00650 
0.01050 -0.01700 -0.07150 
0.14100 -0.03900 -0.23050 
0.06300 -0.07550 -0.18100 
0.05400 0.03150 -0.09350 
0.08600 0.05800 0.02900 
0.10900 -0.00200 -0.08200 
0.01000 -0.03600 -0.04750 
-0.05550 -0.02700 -0.01100 
0.01800 0.05050 0.00400 
0.09500 -0.00550 -0.11550 
0.07900 0.05450 -0.16350 
0.08750 0.04100 -0.05250 
0.08750 0.04600 0.05550 
0.05500 -0.06400 -0.19500 
0.04400 0.04500 -0.02350 
0.02550 0.00500 -0.13450 
0.07850 0.17700 0.04850 
0.06750 0.18200 -0.07050 
0.05050 -0.05700 -0.06300 
0.06400 0.02600 -0.04500 
0.04400 0.11850 -0.11450 
0.03200 -0.10350 0.11900 
-0.02400 -0.05150 -0.10150 
0.03550 0.06000 -0.00800 
-0.05700 -0.11100 -0.12600 
-0.05100 -0.13200 0.08300 
-0.05400 -0.00750 -0.00500 
-0.04500 -0.09400 -0.05300 
-0.12000 0.03500 -0.01300 
0.05900 0.12050 -0.08500 
0.11150 0.05250 -0.03600 
0.09900 0.06450 0.01400 
0.17600 0.07050 -0.25300 
0.08800 -0.05850 -0.19000 
0.08650 0.00100 -0.13200 
0.09550 0.07100 0.07200 
0.00300 0.07300 0.02150 
0.06550 0.09900 -0.00050 
0.01600 0.09850 -0.13400 
-0.10250 -0.02650 -0.02850 
-0.05250 0.11100 -0.13750 
-0.00000 0.07150 -0.04700 
-0.02000 -0.01100 -0.10550 
0.11400 -0.01700 0.04100 
0.13100 0.08400 -0.06500 
0.10600 0.10100 -0.10000 
0.17000 0.10850 0.10850 
0.14150 0.11250 -0.08900 
0.00050 0.12900 -0.24000 
-0.02700 0.04750 0.06600 
0.07400 0.08100 0.04650 
-0.03700 -0.02050 -0.13150 
0.01450 0.05650 -0.12500 
0.01700 0.07750 -0.18650 
0.04950 0.00050 0.07650 
0.04550 0.06850 -0.12750 
0.13850 0.03350 -0.03000 
-0.01450 -0.01600 -0.06700 
-0.02900 0.08800 -0.15150 
0.02000 -0.08450 -0.09700 
0.12900 0.05600 0.04750 
-0.01200 0.01100 0.01450 
0.03250 0.13000 -0.25300 
0.07950 0.12700 -0.14150 
-0.10700 0.03300 -0.20100 
0.14850 0.01550 0.04150 
0.09450 0.04950 -0.22700 
0.00450 0.13350 -0.00600 
0.00950 0.09100 -0.02850 
0.03500 0.05900 -0.10100 
0.10450 0.04400 0.03550 
0.04250 -0.04800 -0.18100 
0.06800 0.08100 -0.08600 
0.07150 0.07200 -0.15950 
0.04450 -0.01900 -0.11350 
-0.01150 0.03000 -0.09000 
0.11650 0.00500 0.13900 
0.13850 -0.02350 0.00600 
0.09050 0.02850 -0.19550 
0.03600 0.03450 -0.08700 
0.02400 -0.02450 -0.18500 
-0.00000 0.08600 -0.00700 
0.08350 0.08150 0.01400 
0.00300 0.04050 -0.09850 
0.10250 0.05350 0.01350 
0.05200 0.01800 -0.00450 
-0.00650 0.13000 -0.05900 
0.04850 -0.00200 0.02000 
-0.04300 0.04650 -0.02150 
0.03650 0.02900 -0.04950 
0.01200 0.04450 -0.05300 
0.05600 0.09550 -0.00550 
0.00500 -0.01000 0.06350 
-0.00700 0.10200 -0.07700 
0.05700 0.08350 -0.19800 
-0.01500 0.03450 -0.00900 
0.13050 -0.00300 -0.12450 
0.00950 0.02300 -0.13000 
-0.05400 -0.02300 -0.11900 
0.02150 -0.00300 -0.06300 
0.14900 -0.02550 -0.17400 
0.04200 0.18100 0.11450 
0.05700 0.01700 -0.08800 
-0.02800 0.07450 0.08550 
0.05400 0.16850 -0.00200 
-0.08900 0.01400 -0.00100 
-0.21750 -0.06150 0.08000 
0.15400 -0.03750 -0.18450 
0.13100 0.05700 0.05650 
0.05550 0.04850 -0.12850 
0.05550 -0.00500 -0.14500 
0.05550 0.09800 0.04650 
-0.04350 -0.07750 0.01600 
0.03750 -0.01050 -0.12050 
0.11750 -0.10650 0.01350 
0.07550 0.03400 -0.19700 
0.06600 -0.02400 -0.10650 
0.09250 0.00900 -0.23850 
-0.10450 -0.13800 0.04350 
0.02100 -0.03400 -0.07800 
0.22100 -0.09400 -0.14000 
-0.00750 0.00950 -0.10500 
0.00400 -0.07650 -0.25550 
-0.02850 0.04600 -0.21250 
0.12450 0.10850 -0.12050 
-0.12250 0.08450 -0.05650 
0.02800 -0.02300 -0.00600 
0.13200 0.02650 -0.18650 
0.03350 0.14050 -0.00850 
0.09200 0.01700 0.02550 
-0.01550 0.06050 -0.01550 
0.00300 0.16600 -0.08650 
-0.01200 -0.03550 -0.01400 
-0.10700 0.01500 -0.03500 
0.13100 0.10850 -0.07000 
0.08200 0.07250 -0.10800 
0.12450 0.18250 -0.28850 
0.07450 0.00550 0.03350 
0.01350 0.07100 -0.05900 
-0.08650 -0.01750 0.01600 
-0.06900 -0.03100 -0.07500 
0.05750 0.09550 -0.07500 
0.10050 0.03500 0.03250 
0.03600 0.05050 -0.07200 
0.06850 0.15600 0.03450 
0.04500 0.00700 -0.14300 
-0.06750 0.00200 -0.18200 
0.03250 0.11100 -0.05100 
0.05350 0.15700 -0.05250 
0.03200 0.09950 0.01100 
-0.01050 -0.03750 -0.04950 
0.08650 -0.01550 -0.08300 
-0.06450 0.00250 -0.08150 
0.09350 0.01650 -0.23150 
0.05550 0.06300 -0.13800 
0.15050 0.14700 0.05450 
0.09750 -0.00700 -0.00700 
0.15550 0.01200 -0.25750 
-0.02200 0.05050 0.12800 
0.04200 0.10850 -0.01600 
-0.15150 0.05200 -0.09400 
0.07700 0.03750 -0.01450 
0.02450 0.02850 0.01950 
0.06100 0.01450 -0.11900 
-0.09200 0.00200 -0.10650 
0.07700 0.04500 -0.13300 
0.04750 0.10500 -0.02400 
-0.00850 -0.08100 -0.01800 
-0.03750 0.03350 -0.09550 
-0.12100 0.00100 -0.01600 
0.06150 0.01050 -0.05600 
0.10850 -0.03650 -0.17150 
0.12450 -0.02600 -0.10850 
0.05500 0.05950 -0.02050 
0.01250 0.16100 -0.13850 
0.06150 -0.03200 0.17100 
-0.03350 0.04450 -0.27550 
0.04750 -0.01800 -0.13100 
0.03200 0.07150 0.02200 
0.09250 0.06850 0.06350 
0.00650 -0.04900 -0.05750 
0.00050 -0.07900 0.00100 
0.05800 0.10400 0.10050 
0.08650 0.13700 -0.15750 
0.09700 0.07750 -0.18900 
0.12500 -0.02300 -0.25700 
0.05050 0.17900 -0.11450 
0.04950 0.01750 -0.02150 
-0.08200 0.06900 -0.25500 
-0.01350 0.07300 0.08550 
0.06850 -0.00700 -0.06900 
0.13250 -0.02800 -0.04400 
0.05650 -0.00750 -0.17300 
-0.02350 0.12350 -0.09250 
0.10250 0.09400 -0.00500 
0.04700 0.11300 -0.09950 
0.05700 0.11950 -0.26550 
-0.11450 0.07100 0.02250 
0.11400 0.01500 0.03950 
0.02500 -0.03100 -0.17450 
0.00200 0.02450 -0.18750 
0.09900 0.03000 0.06750 
0.07400 0.16200 0.08000 
0.02450 0.07850 -0.17600 
0.11750 -0.03250 -0.19400 
-0.12300 -0.26950 -0.04400 
0.10900 0.00800 0.05150 
0.01000 -0.03050 -0.21400 
0.18050 0.00250 -0.06650 
0.01750 0.07000 -0.06100 
-0.01000 -0.05000 0.03150 
0.07750 0.01900 0.13300 
0.17550 -0.02650 -0.27450 
-0.01250 -0.04500 0.07750 
0.13450 0.16050 -0.14750 
0.04900 -0.02000 -0.16900 
-0.11200 -0.04300 -0.18200 
0.04250 0.17150 -0.03650 
0.04350 0.05750 -0.12350 
0.04950 0.02700 0.04300 
0.11400 0.00300 -0.11700 
-0.08000 0.06600 -0.05700 
-0.05100 -0.03900 -0.07200 
0.05000 0.02250 -0.09800 
0.00500 0.13400 0.12350 
-0.01050 -0.04150 -0.05550 
0.02450 0.09500 -0.10350 
0.02850 0.06050 0.01000 
-0.12200 0.05500 -0.09600 
0.02000 0.09150 -0.05450 
0.11650 0.03800 -0.13350 
0.02950 0.04700 0.06300 
0.11600 0.01050 -0.09950 
-0.02250 0.08450 -0.12550 
0.03100 -0.00350 -0.06700 
0.11650 -0.00950 -0.02650 
0.03250 0.08800 -0.04900 
-0.01500 0.07350 0.04650 
-0.09800 0.13100 -0.08800 
0.06750 0.08150 -0.17750 
0.13300 0.03300 -0.02200 
0.00600 0.04900 -0.08200 
0.01600 0.04150 -0.04400 
-0.01050 -0.04950 -0.07650 
0.08900 0.01750 -0.06100 
-0.10500 -0.03200 0.06000 
-0.10100 -0.00600 -0.28600 
-0.03300 0.07800 -0.01100 
0.05350 0.04500 -0.13650 
-0.09900 -0.10350 0.05050 
-0.03600 -0.05600 -0.18850 
-0.03700 -0.01200 -0.18500 
-0.04050 -0.06700 -0.08050 
0.02650 0.17700 -0.11650 
0.05700 0.06500 -0.04000 
0.04750 0.06050 -0.14900 
-0.00150 0.02100 -0.28250 
0.09800 0.05600 -0.00650 
0.09350 0.07950 0.11350 
0.06300 -0.00500 -0.16650 
0.04550 0.12300 -0.14500 
0.06950 0.07700 -0.10150 
-0.00250 0.01400 -0.09300 
0.00800 0.07850 0.07750 
-0.11550 -0.08450 0.15300 
0.12200 -0.09300 0.05600 
0.04500 -0.04150 0.04200 
-0.00000 0.11900 -0.10050 
0.07900 0.00350 -0.13200 
-0.12500 -0.16000 0.04150 
0.07050 0.07500 0.07100 
0.00800 -0.01650 0.04500 
0.01100 0.01150 -0.07650 
-0.01550 0.02100 -0.07450 
0.10250 0.00750 -0.05150 
0.14650 0.17850 -0.03950 
0.02750 -0.15400 0.00300 
0.01000 0.02400 -0.10750 
0.03750 -0.00900 -0.12100 
-0.05850 -0.01250 -0.01600 
-0.00450 0.03600 -0.09850 
0.14050 -0.01650 -0.13850 
0.10050 0.00800 -0.13850 
0.06000 0.11400 -0.01500 
-0.10500 0.02700 0.05200 
-0.06150 0.13700 -0.14650 
-0.05150 -0.00100 -0.13550 
0.12950 0.06650 -0.13500 
-0.02200 0.06900 -0.02950 
0.06650 0.11450 0.04250 
0.02150 -0.03150 -0.21650 
0.05250 -0.00200 -0.01050 
-0.14000 0.01900 0.04400 
0.04750 0.09000 0.03400 
0.00400 0.02350 -0.00850 
0.13450 -0.05150 -0.13550 
0.15500 0.04350 0.03450 
0.10250 -0.02900 0.10700 
-0.08800 -0.02700 -0.07100 
0.07950 0.07100 -0.03850 
0.01450 -0.04950 -0.14800 
0.04300 -0.12400 0.04100 
0.04350 0.18100 0.05150 
0.06350 -0.08950 -0.03350 
-0.16950 0.06850 0.12200 
0.22150 -0.10000 -0.08250 
0.06650 0.01100 -0.20050 
0.10350 0.18500 0.00450 
0.16700 0.02250 -0.01400 
0.08550 -0.05450 -0.13750 
0.01350 0.11050 -0.14300 
0.07600 0.05400 -0.17550 
-0.03050 -0.03750 0.14600 
0.09600 0.09100 -0.01550 
0.04550 -0.02800 -0.13950 
0.08800 0.05900 -0.04050 
-0.00200 -0.09950 -0.04800 
-0.04000 0.10500 0.05350 
-0.08400 -0.00500 -0.10350 
0.04250 0.03050 -0.17700 
0.12500 0.15650 -0.05900 
0.12300 0.02600 0.05200 
0.15550 0.05450 -0.10550 
-0.03450 0.03100 -0.01900 
0.12350 0.01100 -0.05150 
0.02400 -0.00650 -0.03500 
-0.13850 -0.03150 0.00750 
0.11800 0.10850 0.06800 
0.10100 0.04000 0.09750 
0.11650 -0.13700 -0.11750 
0.05100 -0.07750 -0.13700 
0.08700 -0.00650 0.11500 
0.05600 0.02850 0.07150 
-0.01500 0.10400 -0.19650 
-0.09600 -0.00350 -0.09200 
0.06200 0.00650 -0.03700 
0.03450 0.01700 -0.16750 
-0.05600 -0.07000 -0.05000 
0.13350 -0.08250 -0.16800 
0.18500 -0.03900 0.15550 
0.12550 0.15150 -0.04200 
0.05500 0.09150 -0.16300 
0.01250 0.03800 -0.03000 
0.00600 -0.05850 -0.13200 
0.08050 0.07600 0.08600 
0.03850 -0.10000 -0.13550 
0.18400 0.22300 -0.07950 
-0.06000 -0.02700 -0.17100 
0.00650 -0.03350 0.15800 
0.01100 -0.01950 -0.15950 
0.04100 0.06700 0.01800 
0.01400 0.01550 -0.16100 
0.06400 -0.10000 -0.06300 
0.16900 0.07550 -0.10750 
-0.04650 -0.01200 0.08200 
-0.05400 -0.06200 0.17100 
0.03550 0.04950 -0.12300 
0.01550 0.00050 -0.09350 
0.15150 0.24250 0.05400 
-0.01750 0.06200 -0.11350 
0.04550 -0.03550 0.05650 
0.03300 0.03800 -0.12800 
-0.10100 -0.00500 0.00900 
0.07800 0.10300 -0.01100 
-0.06850 0.02550 -0.12450 
0.10050 0.06900 -0.00250 
-0.00900 0.05050 -0.07700 
-0.04100 0.05600 -0.19100 
0.04350 -0.06800 -0.08950 
0.13850 0.08350 -0.06950 
0.15850 0.14850 0.10050 
0.01550 -0.09800 0.00350 
0.02450 0.02500 -0.22150 