# vtk DataFile Version 2.0 
Xm, Ym, Zm, Uvecs, timestep 10132 
ASCII 
 
DATASET POLYDATA POINTS 518 float 
 10.278   4.745 -70.745 
 -1.903   8.299 -73.671 
  0.381  10.172 -67.856 
-12.140   1.507 -73.017 
 -0.096   8.521 -71.093 
 -8.041 -12.012 -73.745 
  2.409  -8.814 -70.376 
 -6.390   0.477 -73.755 
-13.047   0.228 -73.269 
  0.852  -1.185 -68.193 
 -3.207   3.896 -67.507 
  5.082   4.837 -70.692 
-11.311   2.798 -70.561 
 -0.477   0.230 -74.043 
  1.591  10.410 -67.206 
  1.700  12.251 -68.698 
  1.004  11.579 -69.258 
 -4.805   9.048 -72.521 
-11.160   8.937 -72.778 
  1.250  10.887 -74.701 
  4.588   7.349 -68.136 
 12.121   0.984 -64.508 
 -8.131  -4.784 -71.596 
 -0.157   5.401 -67.392 
  4.582   8.502 -69.245 
 -7.689  -1.167 -68.160 
-11.848   6.721 -71.881 
  6.037  10.631 -70.006 
  1.137  -3.677 -70.573 
 -4.652   6.876 -63.677 
  3.818   4.348 -70.272 
 -8.684   3.399 -67.120 
 -0.872   8.368 -66.004 
 -2.172  -3.369 -63.645 
  0.478  -0.545 -62.660 
 10.567   6.643 -70.939 
-10.224   9.354 -67.210 
 -2.801  10.413 -66.902 
 -8.156  -4.742 -68.411 
 10.535   6.376 -68.685 
 -3.154  11.642 -66.409 
  7.287   7.917 -69.499 
 -8.639  -2.231 -68.968 
 -7.235  -3.527 -69.247 
 -4.939  -3.921 -72.161 
  4.830  -2.087 -70.863 
 -5.752   2.666 -76.424 
  7.782   6.423 -67.258 
  5.753   9.540 -66.395 
-13.521  11.754 -71.617 
 -0.742   6.686 -71.092 
  0.008  -5.393 -69.130 
 -6.666   6.225 -70.293 
 10.244   2.826 -68.823 
-11.459   8.416 -76.138 
  3.253  -4.708 -67.989 
-15.294  -7.128 -73.601 
  5.284   7.566 -66.355 
 -3.318   8.738 -67.594 
  5.736   8.965 -66.454 
 -2.769   5.548 -63.836 
 -5.914  12.495 -67.765 
-14.379   6.075 -74.529 
  0.604  -9.203 -65.345 
  3.312   3.180 -67.721 
 -7.394  10.258 -64.246 
 -7.388  -5.912 -69.387 
 -0.191   5.739 -65.915 
 -1.486 -11.149 -72.837 
  8.220 -10.168 -67.762 
  0.727  10.593 -67.602 
  5.466   1.321 -66.790 
  9.440   0.426 -67.376 
 -9.150   1.987 -74.264 
  4.707  11.455 -75.247 
  9.186  -2.313 -71.269 
 -9.061  -7.155 -70.222 
 -8.975  -8.265 -68.792 
  1.547  11.886 -64.725 
 -2.314  -3.472 -72.423 
-14.250  -0.800 -69.044 
  4.367   0.275 -67.929 
  7.666   9.844 -64.986 
 -7.500   8.954 -68.977 
 -7.229   1.013 -64.561 
  9.333   8.052 -66.343 
 -7.590   6.896 -64.078 
  0.454   8.341 -63.836 
 -1.304  -7.555 -69.768 
  8.163   4.987 -75.109 
-13.294  -5.675 -73.239 
 -7.761   7.896 -64.043 
 -2.452   6.620 -64.242 
 -7.653   5.998 -76.544 
-10.578  -9.228 -69.850 
  4.612   5.671 -66.562 
 -8.423   7.478 -62.427 
 -8.956  -5.992 -67.919 
 -2.492  -9.421 -65.631 
 17.153   4.516 -69.171 
 -9.066  -1.253 -68.630 
 11.581  -0.337 -68.126 
  1.103  -4.185 -66.231 
-10.157   0.924 -65.335 
  1.215   2.280 -66.367 
  3.851  -3.454 -68.360 
 -3.925   0.730 -71.366 
 -2.920  -2.224 -75.880 
 -8.160   7.680 -75.329 
  2.977  -2.445 -67.764 
 -0.409  -7.552 -68.582 
 -0.019  -9.739 -65.734 
  5.626 -11.044 -70.001 
  5.329  -1.544 -65.446 
 13.272  11.636 -75.167 
 -8.849  -6.264 -71.069 
  3.011 -10.164 -66.534 
 -6.010  -4.274 -67.776 
-10.753   2.292 -65.328 
 11.677   4.939 -67.951 
 -2.471   6.527 -73.843 
 -0.650  -2.575 -64.657 
-13.857   0.659 -68.709 
  0.245   6.561 -69.896 
  5.030   3.450 -65.932 
 -2.704   7.614 -64.252 
  3.259   8.279 -69.346 
-11.685  -6.233 -73.396 
 -5.015 -11.560 -68.138 
  1.708  13.099 -67.839 
-10.825   5.101 -72.305 
 12.427  -8.078 -71.058 
  2.110  -0.938 -66.839 
 14.589   1.134 -69.293 
-14.355  -7.831 -73.183 
  4.568   9.652 -73.582 
 -2.789  -0.790 -64.123 
  2.245   2.356 -68.917 
 10.890   0.779 -65.403 
  1.792   9.178 -72.558 
  7.800  -3.245 -65.665 
 -6.960   4.244 -65.867 
 16.458   4.163 -69.270 
 10.212 -10.888 -70.614 
 16.617   3.546 -68.811 
 -4.710  -9.052 -65.807 
  0.278  -3.123 -65.703 
 -4.703   2.914 -60.876 
  1.004   3.024 -63.636 
 -0.882  -3.321 -66.260 
  9.939  -7.264 -71.563 
 -5.902  -5.656 -67.779 
  7.690  -4.000 -68.831 
 17.398   6.562 -73.047 
  3.522   6.793 -68.403 
  7.321  -1.186 -74.868 
 12.316  -1.409 -65.542 
 -4.405  10.785 -63.141 
-11.936  -6.625 -69.945 
  2.351 -10.756 -69.334 
 -0.447  -6.077 -63.336 
  1.263  -1.400 -70.187 
-11.991  10.285 -63.100 
-13.307  10.340 -72.698 
  6.136  12.195 -69.401 
 -8.297  13.166 -65.643 
  1.706  -2.333 -64.727 
 -2.446 -12.833 -65.588 
 10.216   7.056 -67.790 
  4.515  -6.584 -63.894 
  1.490   8.089 -69.651 
 -6.871  -8.252 -65.394 
  7.632  11.103 -70.297 
-11.372   5.223 -64.148 
  5.092   4.075 -72.486 
-15.726  -3.981 -74.834 
 -6.239   9.959 -75.851 
 -0.198 -10.942 -68.384 
 -2.055   6.111 -69.601 
 -2.701  -8.356 -62.855 
  1.259  -9.184 -69.070 
 13.694   3.698 -67.158 
 -5.958  -5.852 -73.745 
 -7.101   1.880 -65.514 
 -0.994   2.600 -62.514 
-12.581   7.988 -69.362 
-13.523   6.369 -76.271 
-11.944  -7.049 -66.453 
 -0.374   0.764 -69.902 
 11.026   8.303 -69.799 
 -2.865   1.127 -73.398 
 15.195   7.582 -67.916 
 10.387   6.386 -64.255 
 11.899   1.283 -71.182 
-15.299  -5.931 -75.215 
-11.755   6.680 -66.195 
-12.408   5.241 -64.579 
 -7.460   8.621 -75.275 
  3.383   6.765 -62.422 
 -3.184  -8.199 -69.589 
-12.720  -6.317 -70.663 
 -4.332   8.250 -62.043 
  8.597   2.623 -62.515 
 -3.276  -0.168 -77.530 
 -1.731  -9.639 -65.680 
  7.404   4.201 -62.483 
 -3.678   3.055 -70.567 
-14.296  -0.309 -73.460 
  5.632  10.651 -64.178 
 -0.578 -11.049 -69.258 
  0.116   5.717 -74.111 
 -2.027  -5.133 -66.849 
  1.716   6.056 -73.858 
  3.689   9.410 -64.947 
-13.981   1.702 -67.816 
-14.375   9.654 -67.394 
 -3.918  -9.396 -68.376 
  1.304   6.207 -61.799 
 -3.764  -9.160 -64.431 
  8.545  -9.781 -71.735 
 -8.236   4.457 -67.719 
-12.398  -2.277 -67.604 
  8.625  -2.736 -66.020 
 -9.830  -5.102 -67.600 
 -8.332  -0.829 -60.047 
 12.498   6.597 -66.922 
 -6.074 -11.589 -69.986 
 15.475  11.026 -70.081 
 -6.344  -5.681 -69.310 
 -5.537   9.834 -72.169 
-11.557  -8.523 -67.461 
 -9.535   1.283 -72.404 
 -4.654  -1.434 -62.533 
 16.278   8.781 -66.686 
  0.861   2.409 -66.001 
  6.051 -12.416 -68.096 
 10.762  -1.471 -71.624 
  8.300  -3.237 -65.061 
 12.492  -2.808 -65.334 
-10.538  -1.469 -67.320 
 12.262  -2.711 -67.584 
  6.787   4.654 -74.471 
 -6.814  -7.288 -71.596 
-11.419   5.128 -78.213 
 13.405   0.404 -64.749 
  0.467   8.940 -66.713 
  6.478   3.356 -74.261 
 18.191  -3.250 -70.836 
 11.323 -11.169 -69.417 
-11.674   8.951 -70.528 
 13.977  -7.099 -69.693 
 12.399   4.985 -61.966 
  5.389  -7.830 -66.837 
  8.567   8.098 -74.702 
-13.712  -5.473 -70.648 
 -0.694   3.123 -70.465 
  9.816  -2.370 -70.302 
-13.406   1.763 -69.043 
 -2.914   8.133 -61.880 
 -8.117  -9.921 -66.684 
 -7.451   7.031 -70.410 
  7.902  -7.208 -73.141 
-15.765   3.915 -71.813 
  3.487  -2.495 -65.109 
-15.788  -0.821 -72.325 
 -1.208   9.224 -69.792 
 16.060 -12.859 -69.224 
 -5.131   8.085 -70.435 
 -4.196   0.969 -67.700 
  2.872  -9.308 -69.698 
  8.820  -0.853 -73.687 
-10.258  -0.606 -63.459 
-10.607   7.096 -75.023 
  4.290 -12.009 -74.105 
  4.502  -0.581 -68.721 
  8.002  -9.866 -71.308 
  7.646  -5.081 -66.493 
  9.117  -0.158 -59.694 
 15.666   2.614 -66.328 
 -1.806  -8.848 -62.650 
 13.054   2.163 -72.721 
  0.425   9.561 -62.110 
 11.272  -6.723 -74.027 
  9.263  -0.336 -71.019 
 14.384   9.091 -65.623 
  6.012   8.146 -63.713 
 14.605  -3.524 -66.694 
  6.852   8.679 -74.009 
  3.138  10.500 -65.191 
 12.416  -0.179 -73.345 
 -7.189   3.952 -75.628 
 14.979 -11.814 -70.136 
  7.020   0.701 -76.275 
 13.944  -8.369 -69.698 
 -5.808  10.766 -62.177 
 -5.012   3.060 -68.148 
 15.411  -0.585 -69.434 
 12.941  11.782 -65.922 
 14.847   8.659 -75.027 
 12.884  -4.969 -70.258 
 10.295   0.023 -63.490 
 -7.684   4.893 -62.687 
 -5.940   5.476 -64.480 
 13.288   7.048 -64.620 
-10.178   0.226 -74.387 
 -3.043  -4.930 -62.965 
-12.000   6.142 -68.007 
  1.440   0.506 -66.809 
-14.523  -4.238 -69.710 
 -8.829   7.368 -64.976 
-10.674  -8.414 -76.095 
 -0.627   3.367 -62.400 
 13.342   3.134 -64.376 
 -8.149  -1.541 -74.957 
 -0.082   8.113 -72.925 
  6.235  -6.422 -70.384 
 13.109  -3.914 -68.794 
 10.799   8.373 -72.567 
-11.842  -7.430 -68.867 
  4.292  12.685 -67.636 
 -8.194   1.733 -66.404 
  1.382  11.394 -71.800 
  0.477  -9.448 -72.162 
-12.169  -3.545 -75.308 
  0.111  10.320 -69.399 
  8.111   8.466 -67.400 
 -9.399   8.744 -61.938 
 -1.947   5.321 -71.074 
  0.879  -8.502 -71.639 
 -1.698  -4.572 -72.781 
 11.799 -12.072 -62.451 
 -5.477   0.693 -67.337 
 -8.768  11.460 -67.117 
  3.213 -11.748 -71.837 
  0.448  -6.832 -70.091 
 14.530  -7.816 -68.840 
  1.193  -1.583 -69.469 
-10.579 -11.794 -66.382 
 11.296   4.043 -74.645 
 -3.950   6.607 -72.694 
 -3.214  10.287 -68.554 
  4.749  -8.986 -67.616 
  6.269   0.600 -76.558 
 -1.882   1.268 -65.775 
  2.200  -2.125 -68.550 
 -0.515  -2.876 -67.266 
 -0.443  13.175 -67.833 
  7.120   9.011 -78.088 
 -3.484  -6.598 -69.873 
 -5.502   7.750 -65.745 
-13.273  -8.869 -68.424 
 -3.600  -3.415 -66.749 
-14.813  10.174 -71.840 
 -1.901  -8.084 -73.505 
 11.366  -0.156 -64.695 
 -7.975   4.036 -65.009 
 18.058  -3.809 -67.288 
 -2.202   8.047 -71.842 
 -5.321   5.306 -64.080 
 -2.659  -3.161 -66.214 
 14.948  -3.584 -68.287 
 11.282  10.885 -72.066 
  1.278   5.853 -75.974 
  6.646  -8.076 -70.341 
  9.476  12.699 -64.642 
-13.695 -11.114 -76.771 
 -5.677  12.189 -60.977 
  2.362  -1.143 -61.483 
 -4.095 -10.668 -67.938 
 -8.434  11.379 -69.988 
  3.407   2.168 -65.885 
 -0.049  11.355 -68.403 
-10.528  -6.604 -62.273 
 -7.612   4.694 -66.675 
 -7.078   2.710 -61.776 
 -7.204 -11.933 -61.580 
 -4.912   7.524 -71.244 
 -7.343  -6.841 -69.541 
  0.752   5.174 -62.112 
 -9.832  -8.174 -67.576 
-10.769  13.029 -61.774 
 17.060   6.324 -65.761 
  7.707   4.582 -68.805 
 -4.909  -0.308 -70.359 
  9.797   1.728 -68.834 
  4.793  -8.975 -59.849 
  5.556   4.716 -60.595 
 12.076 -12.092 -65.349 
  0.528  11.578 -58.747 
-11.972  -2.210 -78.087 
 -2.773 -11.593 -66.222 
  1.922  -2.079 -60.986 
 -7.978 -12.530 -66.460 
  2.580   0.697 -69.525 
 -4.040  10.152 -61.096 
 16.043  -4.507 -66.565 
 -6.753  -9.555 -62.612 
  5.338  -6.831 -73.239 
 -3.751  -5.363 -71.645 
  4.114  -1.688 -59.936 
 10.365  -4.691 -62.986 
  7.533  -1.520 -60.662 
  2.554 -12.347 -65.232 
-13.820  -6.807 -75.467 
 15.467 -10.132 -70.155 
-13.953  11.849 -68.097 
-10.098  12.293 -69.713 
 16.792  -7.890 -74.486 
 -2.284   8.899 -62.416 
  7.332   9.098 -62.322 
  5.555  -6.199 -62.383 
  3.767  11.809 -72.593 
  4.075   3.334 -60.973 
-13.261   7.775 -66.246 
 -8.221  -4.917 -61.171 
 13.682  -7.930 -68.037 
 15.380   3.934 -67.285 
 -3.953  -6.907 -76.924 
 14.533   6.289 -71.422 
 -5.807  -7.305 -73.222 
 15.652   6.784 -70.047 
 15.138  11.348 -74.996 
  7.891 -10.057 -62.421 
  4.495  -1.471 -71.224 
  9.163  11.451 -63.723 
 16.419  -4.899 -65.495 
-13.386   0.512 -64.834 
 -8.316  10.619 -61.234 
-13.688  -7.426 -75.302 
 -5.035   8.473 -59.409 
 -6.085  -7.718 -64.986 
-13.123  11.151 -65.053 
 11.801  -7.651 -67.082 
 11.997 -10.297 -61.977 
 -2.261  10.189 -63.977 
 11.905   0.786 -63.430 
 11.584   5.573 -73.782 
  8.107  12.187 -61.128 
 -0.964  -0.399 -73.549 
 13.086   8.823 -70.749 
 10.514   2.159 -67.939 
  6.534   3.047 -61.520 
 -8.817   2.840 -77.984 
-14.905  -3.112 -71.852 
  2.468  -6.912 -76.013 
-10.752 -11.610 -63.630 
 11.117  12.588 -63.307 
-14.397  -0.387 -67.918 
  1.663 -11.174 -74.435 
  8.291 -13.182 -64.153 
  9.492  12.230 -68.792 
 -9.146   0.908 -76.982 
  0.935 -12.703 -71.729 
-10.130   3.487 -75.276 
  2.091   0.443 -73.251 
  0.590  -2.694 -70.669 
 13.487  10.679 -64.562 
-11.317  11.923 -65.186 
 13.863  11.181 -70.251 
 -6.053  -9.847 -62.801 
  1.109   5.249 -76.512 
-11.035  -6.318 -74.683 
 10.631 -11.238 -68.710 
 -3.254  -7.401 -64.255 
  9.840   2.944 -76.900 
 -4.497  -3.869 -69.904 
 -4.528  10.556 -68.575 
  9.480  -0.083 -74.265 
  6.492   1.896 -72.865 
  9.709   4.026 -68.661 
 -2.112  -3.319 -75.706 
  7.765  -9.925 -66.990 
 13.253  -5.753 -71.950 
 -0.505 -12.403 -75.138 
  6.057   8.812 -69.663 
 -9.716  -6.646 -68.231 
  6.381  -1.246 -72.382 
  5.836 -10.991 -68.341 
-14.932   2.658 -70.636 
  6.624   3.665 -69.058 
 -7.082  10.654 -74.752 
  3.928   5.441 -65.110 
 -3.635  -4.070 -74.070 
-12.702   8.550 -74.156 
 -4.748  -7.784 -66.743 
  6.597   9.506 -65.121 
 -4.578   9.323 -74.019 
 -2.006   3.443 -66.550 
 -4.230  -9.948 -72.030 
-12.625  -2.944 -68.183 
 15.282  11.970 -64.553 
 -8.854   1.403 -66.219 
-11.796  -0.279 -63.227 
 -9.021  -2.785 -67.999 
  4.758  10.291 -71.398 
  4.221  -6.280 -70.084 
 -7.867 -12.412 -70.910 
  4.566  -3.152 -69.275 
 14.837 -11.878 -63.443 
-16.211   7.168 -72.861 
  9.117   6.373 -67.527 
  9.103   7.612 -67.133 
-13.100   0.668 -72.336 
 10.223  10.076 -75.466 
-15.903 -10.341 -70.446 
-14.729  11.521 -72.114 
 -0.753 -12.454 -62.723 
  2.803   8.047 -60.695 
  2.551   8.858 -77.219 
 -1.588  14.093 -70.363 
 -9.622  -6.680 -66.572 
  1.681   6.960 -77.500 
 14.639   0.122 -63.085 
 13.544  -9.819 -69.154 
 -2.490   6.156 -62.561 
  6.819  -4.665 -75.384 
 -2.925  -3.817 -66.779 
  8.310 -13.364 -62.670 

 VERTICES 518 1036 
1 0 
1 1 
1 2 
1 3 
1 4 
1 5 
1 6 
1 7 
1 8 
1 9 
1 10 
1 11 
1 12 
1 13 
1 14 
1 15 
1 16 
1 17 
1 18 
1 19 
1 20 
1 21 
1 22 
1 23 
1 24 
1 25 
1 26 
1 27 
1 28 
1 29 
1 30 
1 31 
1 32 
1 33 
1 34 
1 35 
1 36 
1 37 
1 38 
1 39 
1 40 
1 41 
1 42 
1 43 
1 44 
1 45 
1 46 
1 47 
1 48 
1 49 
1 50 
1 51 
1 52 
1 53 
1 54 
1 55 
1 56 
1 57 
1 58 
1 59 
1 60 
1 61 
1 62 
1 63 
1 64 
1 65 
1 66 
1 67 
1 68 
1 69 
1 70 
1 71 
1 72 
1 73 
1 74 
1 75 
1 76 
1 77 
1 78 
1 79 
1 80 
1 81 
1 82 
1 83 
1 84 
1 85 
1 86 
1 87 
1 88 
1 89 
1 90 
1 91 
1 92 
1 93 
1 94 
1 95 
1 96 
1 97 
1 98 
1 99 
1 100 
1 101 
1 102 
1 103 
1 104 
1 105 
1 106 
1 107 
1 108 
1 109 
1 110 
1 111 
1 112 
1 113 
1 114 
1 115 
1 116 
1 117 
1 118 
1 119 
1 120 
1 121 
1 122 
1 123 
1 124 
1 125 
1 126 
1 127 
1 128 
1 129 
1 130 
1 131 
1 132 
1 133 
1 134 
1 135 
1 136 
1 137 
1 138 
1 139 
1 140 
1 141 
1 142 
1 143 
1 144 
1 145 
1 146 
1 147 
1 148 
1 149 
1 150 
1 151 
1 152 
1 153 
1 154 
1 155 
1 156 
1 157 
1 158 
1 159 
1 160 
1 161 
1 162 
1 163 
1 164 
1 165 
1 166 
1 167 
1 168 
1 169 
1 170 
1 171 
1 172 
1 173 
1 174 
1 175 
1 176 
1 177 
1 178 
1 179 
1 180 
1 181 
1 182 
1 183 
1 184 
1 185 
1 186 
1 187 
1 188 
1 189 
1 190 
1 191 
1 192 
1 193 
1 194 
1 195 
1 196 
1 197 
1 198 
1 199 
1 200 
1 201 
1 202 
1 203 
1 204 
1 205 
1 206 
1 207 
1 208 
1 209 
1 210 
1 211 
1 212 
1 213 
1 214 
1 215 
1 216 
1 217 
1 218 
1 219 
1 220 
1 221 
1 222 
1 223 
1 224 
1 225 
1 226 
1 227 
1 228 
1 229 
1 230 
1 231 
1 232 
1 233 
1 234 
1 235 
1 236 
1 237 
1 238 
1 239 
1 240 
1 241 
1 242 
1 243 
1 244 
1 245 
1 246 
1 247 
1 248 
1 249 
1 250 
1 251 
1 252 
1 253 
1 254 
1 255 
1 256 
1 257 
1 258 
1 259 
1 260 
1 261 
1 262 
1 263 
1 264 
1 265 
1 266 
1 267 
1 268 
1 269 
1 270 
1 271 
1 272 
1 273 
1 274 
1 275 
1 276 
1 277 
1 278 
1 279 
1 280 
1 281 
1 282 
1 283 
1 284 
1 285 
1 286 
1 287 
1 288 
1 289 
1 290 
1 291 
1 292 
1 293 
1 294 
1 295 
1 296 
1 297 
1 298 
1 299 
1 300 
1 301 
1 302 
1 303 
1 304 
1 305 
1 306 
1 307 
1 308 
1 309 
1 310 
1 311 
1 312 
1 313 
1 314 
1 315 
1 316 
1 317 
1 318 
1 319 
1 320 
1 321 
1 322 
1 323 
1 324 
1 325 
1 326 
1 327 
1 328 
1 329 
1 330 
1 331 
1 332 
1 333 
1 334 
1 335 
1 336 
1 337 
1 338 
1 339 
1 340 
1 341 
1 342 
1 343 
1 344 
1 345 
1 346 
1 347 
1 348 
1 349 
1 350 
1 351 
1 352 
1 353 
1 354 
1 355 
1 356 
1 357 
1 358 
1 359 
1 360 
1 361 
1 362 
1 363 
1 364 
1 365 
1 366 
1 367 
1 368 
1 369 
1 370 
1 371 
1 372 
1 373 
1 374 
1 375 
1 376 
1 377 
1 378 
1 379 
1 380 
1 381 
1 382 
1 383 
1 384 
1 385 
1 386 
1 387 
1 388 
1 389 
1 390 
1 391 
1 392 
1 393 
1 394 
1 395 
1 396 
1 397 
1 398 
1 399 
1 400 
1 401 
1 402 
1 403 
1 404 
1 405 
1 406 
1 407 
1 408 
1 409 
1 410 
1 411 
1 412 
1 413 
1 414 
1 415 
1 416 
1 417 
1 418 
1 419 
1 420 
1 421 
1 422 
1 423 
1 424 
1 425 
1 426 
1 427 
1 428 
1 429 
1 430 
1 431 
1 432 
1 433 
1 434 
1 435 
1 436 
1 437 
1 438 
1 439 
1 440 
1 441 
1 442 
1 443 
1 444 
1 445 
1 446 
1 447 
1 448 
1 449 
1 450 
1 451 
1 452 
1 453 
1 454 
1 455 
1 456 
1 457 
1 458 
1 459 
1 460 
1 461 
1 462 
1 463 
1 464 
1 465 
1 466 
1 467 
1 468 
1 469 
1 470 
1 471 
1 472 
1 473 
1 474 
1 475 
1 476 
1 477 
1 478 
1 479 
1 480 
1 481 
1 482 
1 483 
1 484 
1 485 
1 486 
1 487 
1 488 
1 489 
1 490 
1 491 
1 492 
1 493 
1 494 
1 495 
1 496 
1 497 
1 498 
1 499 
1 500 
1 501 
1 502 
1 503 
1 504 
1 505 
1 506 
1 507 
1 508 
1 509 
1 510 
1 511 
1 512 
1 513 
1 514 
1 515 
1 516 
1 517 
POINT_DATA 518 
SCALARS MeanU double 1 
LOOKUP_TABLE default
0.18333 
0.16575 
0.09499 
0.16105 
0.08690 
0.14861 
0.12794 
0.14698 
0.14745 
0.25917 
0.08593 
0.16956 
0.19847 
0.20406 
0.09041 
0.07618 
0.10126 
0.09118 
0.12662 
0.08731 
0.03938 
0.14537 
0.06404 
0.09614 
0.12969 
0.25789 
0.16492 
0.05682 
0.19119 
0.12560 
0.17244 
0.13580 
0.14261 
0.30772 
0.28270 
0.11554 
0.13256 
0.13488 
0.17521 
0.09623 
0.09090 
0.11139 
0.24262 
0.18036 
0.17584 
0.20212 
0.12258 
0.09947 
0.12266 
0.09103 
0.10526 
0.10917 
0.22126 
0.19850 
0.08579 
0.28276 
0.11941 
0.10323 
0.11853 
0.09226 
0.08771 
0.07112 
0.09258 
0.18914 
0.12425 
0.14661 
0.13273 
0.12387 
0.07924 
0.12840 
0.08909 
0.13515 
0.13918 
0.13520 
0.14865 
0.20057 
0.13365 
0.17002 
0.12481 
0.15884 
0.15506 
0.21219 
0.04826 
0.12166 
0.17730 
0.08779 
0.08226 
0.07850 
0.14269 
0.19739 
0.10985 
0.10370 
0.07890 
0.10569 
0.08106 
0.09105 
0.09482 
0.14394 
0.10248 
0.11653 
0.21784 
0.08119 
0.25035 
0.25152 
0.14109 
0.24472 
0.21271 
0.11415 
0.04620 
0.19320 
0.12892 
0.08342 
0.10625 
0.25586 
0.05985 
0.07211 
0.13856 
0.17572 
0.24515 
0.09639 
0.17829 
0.24746 
0.26878 
0.13909 
0.09259 
0.09918 
0.08465 
0.09177 
0.11614 
0.14220 
0.16856 
0.12169 
0.19949 
0.04989 
0.09998 
0.07992 
0.27720 
0.27378 
0.10756 
0.09686 
0.16061 
0.08164 
0.12715 
0.07559 
0.06345 
0.13400 
0.23795 
0.19985 
0.16252 
0.26860 
0.12277 
0.18481 
0.22697 
0.11437 
0.07655 
0.15081 
0.10958 
0.20056 
0.16041 
0.08147 
0.19577 
0.13166 
0.15759 
0.06400 
0.09657 
0.12516 
0.25636 
0.07436 
0.09596 
0.15642 
0.08175 
0.26331 
0.11801 
0.13509 
0.15200 
0.18376 
0.10281 
0.09936 
0.16021 
0.11181 
0.10263 
0.13818 
0.11587 
0.13254 
0.13523 
0.18924 
0.08170 
0.11196 
0.22015 
0.09987 
0.26746 
0.20151 
0.11655 
0.11154 
0.04752 
0.09948 
0.05878 
0.09417 
0.10798 
0.06968 
0.08814 
0.15737 
0.11957 
0.10625 
0.08134 
0.12742 
0.20238 
0.20989 
0.09123 
0.10480 
0.06608 
0.12265 
0.14768 
0.11432 
0.24707 
0.13250 
0.11428 
0.14072 
0.12475 
0.13206 
0.13602 
0.21627 
0.14025 
0.10026 
0.17927 
0.16069 
0.13696 
0.10495 
0.14223 
0.09197 
0.23845 
0.12847 
0.20129 
0.18271 
0.07888 
0.09588 
0.12342 
0.16117 
0.11044 
0.27925 
0.22657 
0.13961 
0.08720 
0.12402 
0.15434 
0.07595 
0.11011 
0.09397 
0.11924 
0.12893 
0.05936 
0.12604 
0.16793 
0.22261 
0.18468 
0.20057 
0.21629 
0.26031 
0.12810 
0.12821 
0.26601 
0.24078 
0.19538 
0.30678 
0.19669 
0.11092 
0.08337 
0.12098 
0.10826 
0.13018 
0.25318 
0.24264 
0.18214 
0.13953 
0.28605 
0.13833 
0.12589 
0.05031 
0.11811 
0.11021 
0.09479 
0.08528 
0.12993 
0.19970 
0.15703 
0.09937 
0.09945 
0.12377 
0.07510 
0.08185 
0.10190 
0.11768 
0.16147 
0.13960 
0.13394 
0.21429 
0.04693 
0.09111 
0.16919 
0.10446 
0.08261 
0.10057 
0.06139 
0.15851 
0.14743 
0.21598 
0.11134 
0.16403 
0.10272 
0.07544 
0.13039 
0.11807 
0.12890 
0.14287 
0.08614 
0.16970 
0.18462 
0.15459 
0.18528 
0.09970 
0.16615 
0.11195 
0.10660 
0.13252 
0.11176 
0.13179 
0.08376 
0.15792 
0.09232 
0.13325 
0.09403 
0.27120 
0.17788 
0.11768 
0.06322 
0.17728 
0.12471 
0.15564 
0.14028 
0.16946 
0.10691 
0.19520 
0.14938 
0.12515 
0.32646 
0.23254 
0.14267 
0.19563 
0.15434 
0.15224 
0.07637 
0.18210 
0.12989 
0.11678 
0.14321 
0.09389 
0.07440 
0.16546 
0.07915 
0.22488 
0.07872 
0.10043 
0.13812 
0.15804 
0.10564 
0.09356 
0.18493 
0.31323 
0.12943 
0.09299 
0.15135 
0.08042 
0.28764 
0.12550 
0.17194 
0.08738 
0.18938 
0.07766 
0.14057 
0.19408 
0.16176 
0.08525 
0.15234 
0.24579 
0.17590 
0.21113 
0.10570 
0.09378 
0.06840 
0.10056 
0.11050 
0.30757 
0.16716 
0.12737 
0.14027 
0.09057 
0.21058 
0.20864 
0.13730 
0.25523 
0.20546 
0.09959 
0.08573 
0.12686 
0.09529 
0.12178 
0.17958 
0.11069 
0.13195 
0.09226 
0.25707 
0.09059 
0.18430 
0.12460 
0.32930 
0.15204 
0.13076 
0.14492 
0.07163 
0.12230 
0.14679 
0.10287 
0.21883 
0.23551 
0.07683 
0.10967 
0.15478 
0.10813 
0.12851 
0.07105 
0.21295 
0.08732 
0.09889 
0.13273 
0.14766 
0.10456 
0.12075 
0.10198 
0.22013 
0.19833 
0.17349 
0.08231 
0.12607 
0.20571 
0.09799 
0.24958 
0.11601 
0.16025 
0.18765 
0.19777 
0.09249 
0.14992 
0.12763 
0.15594 
0.13701 
0.23475 
0.12843 
0.11644 
0.08989 
0.17269 
0.13346 
0.12117 
0.19478 
0.13864 
0.26523 
0.16257 
0.07443 
0.26802 
0.14491 
0.22278 
0.12916 
0.14366 
0.13719 
0.09896 
0.08790 
0.13552 
0.19326 
0.13206 
0.25080 
0.13324 
0.10234 
0.11415 
0.09390 
0.06950 
0.14728 
0.04006 
0.09521 
0.13923 
0.15906 
0.22747 
0.18461 
0.21605 
0.19299 
0.27962 
0.07530 
0.22658 
0.14176 
0.13496 
0.13197 
0.12544 
0.12707 
0.12852 
0.12512 
0.15584 
0.08896 
0.11863 
0.04708 
0.11857 
0.10130 
0.10857 
0.14872 
0.10782 
0.10964 
0.09196 
0.08032 
0.19841 
0.20495 
0.06820 

 VECTORS Umean float 
0.08150 0.13500 -0.09350 
0.04250 0.15600 -0.03650 
0.00250 0.09200 0.02350 
0.02650 0.12950 -0.09200 
0.00750 0.08600 0.01000 
0.07000 0.09850 -0.08650 
0.08750 0.03250 -0.08750 
-0.00850 0.13950 -0.04550 
-0.01950 0.13350 -0.05950 
0.10800 0.17200 -0.16100 
0.00150 0.08500 0.01250 
0.09050 0.13200 -0.05600 
0.05350 0.16100 -0.10300 
0.08300 0.13600 -0.12750 
-0.01650 0.08150 0.03550 
0.00200 0.05700 0.05050 
-0.01050 0.10050 0.00650 
0.03450 0.08200 -0.02000 
-0.01950 0.12350 -0.02000 
-0.00450 0.08650 -0.01100 
-0.00450 0.02450 -0.03050 
0.02050 0.11650 -0.08450 
0.00100 0.04000 -0.05000 
0.00550 0.08100 -0.05150 
0.03200 0.12400 0.02050 
0.10100 0.09600 -0.21700 
0.03950 0.14200 -0.07400 
-0.03050 0.04600 0.01350 
0.12000 0.09200 -0.11700 
-0.03050 0.12050 0.01800 
0.08800 0.12550 -0.07900 
-0.02300 0.07250 -0.11250 
-0.00800 0.13950 0.02850 
0.09900 0.17950 -0.22950 
0.07350 0.10000 -0.25400 
0.07750 0.03550 -0.07800 
0.01800 0.12750 0.03150 
0.05100 0.10600 0.06600 
0.11150 0.11850 -0.06500 
0.03100 0.07300 -0.05450 
0.02200 0.05850 0.06600 
0.04050 0.09200 -0.04800 
0.12300 0.11450 -0.17500 
0.13600 0.08550 -0.08200 
0.02400 0.03800 -0.17000 
0.15000 0.10300 -0.08800 
0.09200 0.07100 -0.03900 
-0.04650 0.08150 -0.03300 
0.03050 0.10800 0.04950 
-0.01400 0.08900 0.01300 
0.01250 0.09950 -0.03200 
0.09100 0.01650 -0.05800 
0.02600 0.21700 -0.03450 
0.03850 0.19200 -0.03250 
-0.00350 0.07500 -0.04150 
0.13350 0.03350 -0.24700 
0.03750 0.09800 -0.05700 
0.02050 0.09750 -0.02700 
-0.00200 0.10250 0.05950 
0.01250 0.09000 -0.01600 
-0.01150 0.07500 -0.04400 
0.02000 0.04300 0.05300 
-0.01700 0.07250 -0.05500 
0.12600 0.00400 -0.14100 
0.09400 0.07900 -0.01900 
-0.02400 0.14400 0.01350 
0.07600 0.10100 -0.04050 
-0.01050 0.11350 -0.04850 
0.06350 0.04250 -0.02100 
0.11650 -0.01450 -0.05200 
-0.00800 0.08350 0.03000 
0.04100 -0.00850 -0.12850 
0.05100 0.11450 -0.06050 
0.03600 0.12450 -0.03850 
-0.01950 0.04600 -0.14000 
0.11900 0.03550 -0.15750 
0.05000 0.07900 -0.09550 
0.06250 0.07350 -0.14000 
-0.00950 0.08800 0.08800 
0.10150 0.12000 -0.02300 
0.03550 0.08000 -0.12800 
0.08800 0.04400 -0.18800 
0.00900 0.04200 0.02200 
0.02000 0.12000 -0.00050 
-0.00250 0.05950 -0.16700 
0.04400 0.07000 -0.02950 
-0.02250 0.07400 -0.02800 
-0.02550 0.07250 -0.01600 
0.07050 -0.02250 -0.12200 
0.08950 0.13650 -0.11100 
0.09100 0.04250 -0.04450 
-0.02050 0.10150 -0.00550 
-0.03750 0.05450 0.04300 
-0.00300 0.08250 -0.06600 
0.02500 0.01300 -0.07600 
0.02850 0.08600 0.00900 
-0.02300 0.08400 -0.03750 
0.02700 0.06700 -0.12450 
0.06750 0.06400 -0.04300 
0.08750 0.05000 -0.05850 
0.08100 0.11900 -0.16350 
0.02350 0.07700 0.01050 
0.11900 0.10050 -0.19600 
0.04800 0.12050 -0.21550 
0.02850 0.03750 -0.13300 
0.16100 0.02900 -0.18200 
0.08000 0.12300 -0.15400 
0.03950 0.08550 -0.06450 
0.04550 0.00800 -0.00000 
0.10000 0.03750 -0.16100 
0.07150 -0.04250 -0.09850 
0.08250 0.00450 -0.01150 
0.06000 0.06250 -0.06150 
0.16900 0.04400 -0.18700 
0.05800 -0.00700 -0.01300 
0.01850 0.04150 -0.05600 
0.13750 0.00200 -0.01700 
0.12950 0.09250 -0.07450 
-0.00750 0.08850 -0.22850 
0.03750 0.07850 -0.04150 
0.06850 0.13750 -0.09050 
0.07050 0.09350 -0.21800 
0.01900 0.11850 -0.24050 
0.05350 0.12200 -0.04000 
0.05100 0.03850 -0.06700 
-0.02650 0.09500 -0.01050 
0.01100 0.08350 -0.00850 
0.08050 -0.00250 -0.04400 
0.07600 0.07450 -0.04650 
-0.10700 0.04950 0.07950 
0.07500 0.09600 -0.11650 
-0.00200 0.05200 -0.11000 
0.07700 0.07400 -0.16850 
0.01950 0.02650 -0.03750 
0.02350 0.04800 -0.08450 
-0.01050 0.04600 -0.06450 
0.10350 0.11500 -0.23000 
0.08400 0.18350 -0.18500 
0.03950 0.08750 -0.04850 
-0.03050 0.08950 -0.02100 
0.11400 0.08000 -0.08000 
0.02050 0.05950 -0.05200 
0.10600 0.01300 -0.06900 
-0.02200 0.06300 -0.03550 
0.03500 0.04900 -0.02000 
0.10750 0.02500 -0.07600 
0.09900 0.08950 -0.19700 
0.05900 0.05450 -0.18300 
0.06850 0.14050 -0.04450 
0.09700 0.07650 -0.23850 
0.05600 0.01650 -0.10800 
0.13150 0.08800 -0.09550 
0.18100 0.11800 -0.06950 
0.08350 0.00500 -0.07800 
-0.00200 0.06000 -0.04750 
0.07850 0.08800 -0.09400 
0.03250 0.10150 -0.02550 
0.00200 0.13750 0.14600 
0.02550 0.08900 -0.13100 
0.07900 0.01800 -0.00850 
0.11900 0.12950 -0.08600 
0.06800 0.09350 -0.06300 
-0.08350 0.13250 -0.01750 
0.01450 0.06200 0.00650 
-0.06650 -0.00200 -0.07000 
-0.03650 0.11550 0.03150 
0.11550 0.05150 -0.22300 
0.04800 0.02500 -0.05100 
0.00800 0.06350 -0.07150 
0.08550 0.01600 -0.13000 
-0.01450 0.08000 0.00850 
0.10300 0.14850 -0.19150 
-0.04100 -0.07800 -0.07850 
0.02450 0.01500 -0.13200 
0.07200 0.10950 -0.07700 
0.07800 0.07700 -0.14750 
0.02000 0.09300 -0.03900 
0.08950 0.03650 -0.02300 
0.05600 0.14950 0.01350 
0.05100 0.07900 -0.06050 
0.07050 0.02950 -0.06850 
0.01850 0.13600 0.01600 
-0.01000 0.11500 -0.01000 
-0.03050 0.03550 -0.12400 
0.09350 0.06200 -0.07550 
0.00250 0.18150 -0.05350 
-0.02650 0.07600 0.01400 
0.03600 0.00200 -0.10600 
0.01600 0.14600 -0.16400 
0.09150 0.03000 -0.02650 
0.14300 0.10900 -0.19800 
0.14350 -0.02350 -0.13950 
0.04150 0.10850 -0.00950 
0.02150 0.09250 -0.05850 
0.01450 0.03200 -0.03200 
0.03050 0.09450 0.00600 
0.01700 0.01400 -0.05450 
0.05150 0.07800 -0.01150 
0.02350 0.09850 0.03750 
-0.02550 -0.02200 -0.06100 
-0.02900 0.06800 -0.04800 
-0.05850 0.14450 -0.02150 
0.08500 0.07450 -0.03900 
0.06050 0.06300 -0.06050 
0.04000 0.05550 -0.04400 
0.09950 0.07950 -0.00400 
0.10450 0.12600 -0.11900 
0.07900 0.13750 -0.13750 
-0.00000 0.08650 -0.02900 
0.08200 0.05600 -0.03350 
0.03300 0.05400 -0.01900 
0.09350 0.03550 -0.07100 
0.04250 0.09900 -0.10100 
-0.02850 0.10000 -0.04750 
0.05000 0.11100 -0.21500 
0.06450 0.11000 0.03600 
0.05450 0.06450 -0.07700 
0.08650 0.03600 -0.10500 
0.09050 0.07050 -0.04900 
0.05600 0.01200 -0.11900 
-0.02600 0.12950 -0.03250 
0.09750 0.08150 -0.17500 
0.02950 0.10300 -0.09050 
0.04700 0.02650 -0.08450 
0.03700 0.17300 -0.02900 
0.05900 0.12900 -0.07550 
0.10100 0.02850 -0.08800 
0.09700 0.02200 -0.03350 
0.08200 0.09200 -0.07100 
0.00950 0.08800 -0.02500 
-0.01450 0.04350 -0.23400 
-0.00900 0.11800 -0.05000 
0.11400 0.08900 -0.14000 
0.12550 0.08850 -0.09900 
0.02450 0.03050 -0.06850 
0.08000 0.02100 -0.04850 
0.04950 0.04550 -0.10350 
0.07300 0.11800 -0.08200 
0.02600 0.10000 -0.03900 
0.05950 0.17050 -0.21300 
0.10550 0.15950 -0.12150 
0.02900 0.06700 -0.11900 
-0.01200 0.06700 -0.05450 
0.08200 0.08000 -0.04750 
0.05650 0.13750 -0.04150 
0.01200 0.06000 0.04500 
0.04300 0.07650 -0.06650 
0.04100 0.05750 -0.06200 
0.04850 0.06750 -0.08550 
-0.03650 0.11050 0.05550 
-0.00250 0.05900 0.00600 
0.02650 0.11800 -0.03550 
0.14600 0.02200 -0.08000 
0.09250 0.05800 -0.19400 
0.03100 0.04050 -0.17750 
0.09450 0.15050 -0.09300 
0.13900 0.05150 -0.15750 
0.01300 0.15050 -0.21200 
-0.01200 0.12750 0.00300 
0.11050 0.01150 -0.06400 
0.06450 0.22550 -0.12550 
0.10450 0.09400 -0.19550 
0.02550 0.16650 -0.09900 
0.15050 0.05550 -0.26150 
0.02950 0.10450 -0.16400 
0.00100 0.10650 -0.03100 
0.07350 0.03500 0.01800 
0.06600 0.09950 -0.01950 
0.03450 0.08100 -0.06300 
0.12400 0.02900 -0.02700 
0.06600 0.11250 -0.21700 
0.06950 0.14650 -0.18050 
0.01250 0.14900 -0.10400 
0.08700 0.10750 0.01850 
0.16950 0.18600 -0.13600 
0.06450 0.00950 -0.12200 
0.11350 0.03950 -0.03750 
0.03100 0.01950 0.03450 
0.02650 0.08600 -0.07650 
0.05000 0.03300 -0.09250 
-0.01200 0.09050 -0.02550 
-0.03350 0.05050 -0.06000 
0.07400 -0.03750 -0.10000 
0.12000 0.09800 -0.12600 
0.08300 0.07950 -0.10700 
-0.03200 0.08900 0.03050 
0.06850 0.07100 0.01250 
0.03400 0.07900 -0.08900 
-0.00150 0.07500 0.00350 
0.05650 0.03250 -0.04950 
0.03550 0.07350 -0.06100 
0.07150 0.04750 -0.08050 
0.03450 0.09750 -0.12400 
0.04900 0.02400 -0.12850 
-0.00950 0.11700 0.06450 
0.06650 0.19600 -0.05550 
-0.02000 0.03600 -0.02250 
0.04300 -0.07300 -0.03350 
0.06700 -0.01050 -0.15500 
0.02150 0.07450 -0.07000 
0.02200 0.06500 -0.04600 
-0.00750 0.08750 -0.04900 
0.00050 0.05650 -0.02400 
0.02850 0.15250 0.03250 
0.00800 0.09950 -0.10850 
0.09850 0.16100 -0.10500 
0.05450 0.09600 -0.01450 
0.09050 0.08200 -0.10950 
0.02150 0.04750 -0.08850 
-0.00950 0.07300 -0.01650 
0.03500 0.09600 0.08100 
0.07550 0.08550 -0.03050 
0.02700 0.12300 0.02750 
0.04300 0.09200 -0.10050 
0.00300 0.08550 -0.01000 
0.11700 0.06050 -0.10700 
0.06200 0.10450 -0.13900 
0.12700 -0.08000 -0.03700 
0.04600 0.05900 -0.16950 
-0.07550 0.04800 0.04400 
0.01450 0.06550 -0.15200 
-0.00950 0.11100 -0.01100 
0.06950 0.02750 -0.07600 
0.03750 0.10150 -0.07650 
0.00650 0.11150 0.00400 
0.02500 0.09150 -0.09150 
-0.02150 0.07300 -0.03500 
0.06500 0.14350 -0.01100 
0.06700 0.03500 -0.05300 
0.07650 0.10800 -0.01550 
-0.02450 0.05900 -0.06900 