# vtk DataFile Version 2.0 
Xm, Ym, Zm, Uvecs, timestep 10199 
ASCII 
 
DATASET POLYDATA POINTS 426 float 
  1.602   5.257 -71.190 
  2.197   0.838 -71.043 
  3.659  -5.668 -72.209 
  8.592   2.194 -71.652 
 -5.755  -0.247 -73.622 
 -1.490   4.612 -70.713 
 -5.859   0.164 -71.624 
 -3.083  12.067 -69.928 
 -0.736   0.531 -68.575 
 -1.818  -2.281 -70.531 
 -7.025   0.386 -67.826 
  5.985  -0.349 -70.041 
  1.828  -3.424 -69.877 
 -7.131   4.985 -70.252 
  4.535   3.974 -69.333 
 -2.140  10.740 -69.468 
 -8.111   0.684 -68.956 
  3.133   9.844 -69.711 
 -8.176   3.724 -68.617 
  3.090   0.657 -72.752 
  4.795  11.649 -70.703 
 -6.742  -7.422 -69.328 
 12.704   6.648 -68.365 
  2.969   0.540 -69.837 
 -2.767   3.114 -68.760 
 -2.487 -11.149 -71.907 
  3.254  -6.925 -67.299 
  4.055   0.127 -70.322 
  2.567  -5.652 -73.153 
  0.414  -0.818 -68.584 
  3.466   2.648 -72.381 
  4.867   8.403 -71.930 
  9.644  -5.114 -67.215 
 -8.925   9.360 -76.048 
  2.459   0.499 -66.385 
 -5.840   6.136 -66.769 
 -0.197 -10.273 -63.879 
 -7.340 -10.499 -71.655 
  0.578  -5.628 -70.790 
  9.538   2.465 -65.739 
  2.936   2.151 -68.401 
 -1.704   6.014 -62.422 
  5.598  -4.732 -66.203 
  0.579   8.978 -66.143 
 10.423  -3.204 -68.694 
 -6.259  -0.984 -68.337 
 -9.160  -1.616 -68.049 
 -6.589   3.398 -73.242 
 12.488  -3.938 -70.837 
-10.047  11.667 -72.829 
  1.688   9.235 -67.544 
  0.241 -11.851 -69.537 
 -5.470  -1.771 -62.952 
  8.058  -0.336 -71.854 
 12.131   1.119 -67.415 
  5.078  -1.725 -68.190 
  9.468  -6.021 -68.767 
 -4.567   9.456 -62.599 
  0.084  -7.968 -72.822 
  8.925 -10.947 -68.716 
 -3.583  -5.463 -68.879 
  2.197  -0.591 -67.786 
 -5.201   1.383 -62.804 
 -3.654  -2.718 -65.560 
 -0.177   9.624 -66.860 
 -4.050   8.335 -62.470 
 -0.920   2.811 -64.176 
-13.016  -5.638 -75.108 
  7.246  -2.134 -65.864 
 -3.929  -1.428 -65.810 
 11.236  -9.741 -68.213 
 -6.433  -0.570 -65.559 
  3.500 -11.947 -68.387 
  5.026   5.015 -65.958 
  0.172  -7.015 -71.017 
 -0.802  -9.801 -60.827 
  5.726   2.630 -74.341 
 -4.652  -7.204 -64.692 
 -7.348  -4.956 -66.453 
  1.516   1.353 -71.445 
 -8.088   5.229 -65.864 
  8.752  -4.770 -67.856 
  0.388   9.059 -73.758 
 -2.376   8.062 -74.373 
 -3.210   2.407 -63.650 
 -5.666   8.345 -72.597 
 -9.818  -5.572 -73.984 
  3.305   8.005 -62.233 
 -9.450  11.095 -64.834 
-12.291  -3.965 -69.680 
 -5.408  -5.029 -63.316 
 -9.878 -10.632 -70.277 
-11.433  11.188 -66.789 
-10.355   1.649 -68.340 
 -3.221   4.717 -63.654 
 -2.731  -3.409 -63.825 
 -6.262  -7.374 -66.379 
  5.290   8.021 -67.043 
  0.146   6.837 -65.747 
  4.353   0.641 -61.781 
  0.094   5.349 -68.172 
-10.443   9.057 -67.766 
  3.478  -7.612 -66.566 
  2.845  -6.861 -67.596 
 -7.034  10.625 -70.043 
  3.822   5.700 -65.838 
  8.695   1.994 -68.012 
  7.861   1.997 -61.691 
 -0.038  -2.059 -65.165 
  7.165  -6.695 -63.593 
  7.101  -5.360 -74.973 
-10.701  -7.651 -69.224 
  2.924   4.457 -61.717 
  7.529 -10.781 -66.051 
 -1.702  -3.509 -70.270 
 -4.088   0.219 -64.179 
  0.922   5.603 -63.546 
-10.707 -11.055 -68.299 
 10.886   8.486 -63.727 
  0.144  -7.684 -65.540 
 11.711   3.112 -66.141 
 -0.148  -3.125 -63.132 
 -7.856   8.543 -70.651 
  6.344  10.855 -72.701 
  2.397   2.386 -63.621 
 -8.967 -11.456 -68.695 
 -1.674  11.544 -67.461 
 -3.455   3.471 -62.575 
 13.378   5.281 -65.135 
  7.383 -10.043 -69.120 
  7.779   0.136 -65.322 
  1.224  12.215 -65.117 
-10.927  -4.394 -64.065 
-12.657  -6.807 -65.529 
  4.946  10.193 -71.757 
 -1.382   2.243 -64.201 
 -5.460  11.872 -70.079 
 -7.907  -6.629 -65.444 
  4.478  -9.028 -72.626 
 -9.305  -3.610 -63.949 
 -5.973  -0.913 -65.106 
 -1.553  -8.566 -76.929 
  4.319  -0.041 -73.916 
 -9.939   8.966 -70.285 
 -9.253   7.306 -61.663 
  5.471   3.034 -61.810 
 -1.817   0.546 -61.010 
-12.599  12.791 -68.868 
 -6.314   8.244 -66.061 
 -8.589   0.127 -63.427 
  4.959  10.201 -65.206 
  5.536  -5.754 -74.504 
  3.546  -0.923 -61.822 
 -3.662   1.476 -64.131 
  6.840  -0.053 -68.624 
  2.090  -7.900 -69.163 
 -9.988  10.228 -67.264 
 -4.884  -0.895 -71.782 
 11.608   4.942 -74.204 
 -1.217   6.705 -62.038 
-11.212   2.115 -67.025 
 -3.641 -11.336 -68.434 
  0.210   3.501 -63.847 
-10.404  -6.919 -66.336 
  1.524   5.497 -65.512 
-12.125  10.555 -66.005 
 -1.246  -0.236 -64.194 
 -0.806  -3.555 -76.428 
 -3.428 -11.663 -75.525 
 -7.923   3.963 -61.980 
 -9.477   7.201 -73.777 
 11.430  12.311 -69.433 
  7.966  12.523 -66.430 
 10.063   6.832 -65.350 
 -7.362   8.229 -67.225 
 -3.513  -1.276 -63.007 
  3.796   0.549 -65.250 
  7.298  -6.920 -66.547 
  7.727  -7.739 -69.603 
-11.606  10.208 -66.466 
  1.813   5.636 -71.771 
  5.210   4.675 -72.958 
 11.964   9.274 -72.180 
  1.821   5.632 -65.123 
  2.091  11.715 -62.769 
  9.657  -0.469 -70.267 
  4.865  -7.965 -69.810 
  3.531   3.755 -68.245 
 10.935   5.759 -68.186 
  4.846 -10.351 -69.233 
-10.544   2.811 -65.268 
 -6.078  10.774 -72.992 
 -5.681 -10.227 -69.317 
  8.808  -2.546 -66.537 
-15.454  -9.108 -71.899 
  8.845   7.209 -64.857 
 -4.290  -7.186 -62.669 
 12.073  -3.917 -70.939 
 -5.733  -2.014 -66.818 
 -9.693  -7.414 -73.484 
  5.406   7.370 -70.647 
 -6.716   2.671 -73.802 
-12.244   6.716 -62.272 
  0.226  10.547 -63.843 
  0.893  11.960 -74.039 
-13.422   0.544 -67.730 
  8.116  -7.436 -70.041 
 -7.645  -3.289 -64.853 
-11.248 -11.858 -72.578 
 -7.826   9.687 -63.031 
 -1.836   9.381 -64.728 
-13.722 -12.014 -71.584 
 -6.268   6.607 -72.020 
 -3.579  -9.794 -69.795 
 -8.570  -9.736 -70.543 
 12.189   0.713 -67.766 
 10.843  -1.600 -69.135 
  3.569   8.046 -70.653 
  4.759   0.541 -63.242 
 12.663   3.244 -65.004 
-10.868   7.424 -73.043 
-11.804  11.974 -68.944 
-14.792  -5.867 -69.340 
 -5.995  -4.995 -75.766 
 10.701   7.810 -64.350 
  6.790  11.323 -67.688 
 -6.172   7.033 -63.406 
 14.869  12.706 -69.112 
 -3.979   8.981 -76.786 
  9.440  -8.309 -71.769 
  9.188 -11.590 -68.201 
 11.113   1.244 -63.119 
-11.017   3.482 -66.537 
 -3.691   4.015 -75.426 
  8.308   9.658 -69.573 
  2.740  -1.450 -64.722 
  1.415  -7.911 -66.624 
-13.039   4.568 -65.892 
 -3.874  -7.279 -64.408 
  9.124  -3.425 -72.696 
-14.270  -9.931 -71.219 
 13.280 -11.976 -69.268 
 -5.761  -0.840 -76.328 
 -7.561  -6.588 -70.468 
  5.965   1.607 -63.965 
 11.644  12.930 -68.743 
 11.722   8.045 -74.070 
 -8.049   6.761 -67.107 
 12.410   2.795 -64.728 
  2.800   9.375 -66.510 
  0.341   0.988 -67.424 
 11.035  -8.620 -75.040 
  6.091   4.253 -64.442 
  4.652  13.148 -67.016 
 -0.255  -9.433 -73.662 
  4.098   6.184 -68.325 
 -1.871  -5.516 -69.642 
  1.298  -5.203 -71.035 
 -0.322  11.918 -71.455 
 -4.974   8.919 -73.786 
 -0.316   7.334 -72.043 
 -0.704  -1.341 -68.906 
  0.893  -1.833 -71.325 
  2.817  -4.890 -61.222 
  5.588 -10.790 -77.001 
 -3.724  -1.793 -70.422 
 -3.902   7.014 -73.842 
 11.630   2.478 -70.053 
 12.833  -6.417 -76.440 
 -6.819   0.020 -69.728 
  3.901   6.937 -70.432 
  2.228 -12.283 -69.605 
  0.164   3.055 -72.212 
  8.435   2.748 -70.578 
  4.030  -2.830 -63.135 
-15.387  -3.692 -72.760 
  2.262   4.382 -62.878 
  0.970  -2.952 -65.129 
 -8.375  -9.649 -65.310 
 -3.220  13.108 -64.525 
  4.338  -5.422 -73.901 
  7.562   1.027 -61.260 
 -0.455  -8.021 -64.448 
 -1.481  12.133 -64.567 
 -8.828 -10.102 -63.659 
 -7.910  -5.510 -59.391 
 -5.086  -5.158 -60.658 
 -5.204 -11.277 -61.192 
 -2.335   2.442 -71.648 
 -2.863   6.860 -61.153 
 -9.761  -6.571 -62.370 
  4.282  -9.711 -60.934 
 14.543  -8.419 -67.135 
 10.354  -7.506 -69.028 
  1.555  -2.131 -73.949 
 -1.513  -8.236 -68.697 
 -9.720  -9.120 -59.581 
 -8.700  13.030 -62.611 
  5.854  -7.130 -73.649 
  3.261   0.070 -59.913 
 -7.517  -0.751 -66.332 
  5.507  -6.152 -61.144 
  7.838  -8.124 -73.405 
 -8.310 -11.179 -69.280 
  6.726 -11.983 -64.808 
  9.613  12.325 -65.338 
  3.904  -3.365 -59.675 
  3.054  10.004 -62.532 
  6.031  -4.935 -69.719 
  9.083   0.767 -70.954 
-11.875  -7.140 -62.157 
 -8.230   3.931 -62.999 
 11.637  -8.193 -70.832 
 -6.905  -4.132 -64.794 
  4.884   9.338 -74.535 
 -6.002  -0.512 -60.829 
 -1.295  -5.681 -60.751 
-12.322  -0.134 -66.475 
 -2.220  -6.530 -72.338 
 -4.058   4.354 -63.698 
 14.186  11.813 -67.163 
  2.127  -6.596 -60.403 
-13.755  10.471 -75.922 
 -6.866   1.340 -70.313 
  4.630  -1.587 -60.903 
  3.277  -3.405 -60.205 
-15.434   0.752 -70.506 
  6.571   4.919 -72.656 
 -5.915  -9.549 -63.513 
 -1.765  -7.585 -67.022 
 -7.518  -7.211 -68.960 
 15.449  -9.031 -66.549 
 -3.107   3.090 -58.415 
  5.466 -12.659 -74.036 
 10.032   8.409 -73.532 
 -4.620   6.153 -76.882 
  1.588  -1.327 -61.728 
 12.626  -1.352 -65.090 
  2.288   7.559 -65.346 
 -1.027 -12.413 -67.853 
  6.158  -0.180 -73.823 
-14.547 -10.748 -69.787 
-11.665 -10.201 -74.182 
 10.260  -5.635 -67.956 
-10.952  10.372 -63.952 
 -8.728  -1.380 -76.188 
  0.524  -1.140 -73.266 
 11.570 -12.011 -65.552 
  5.011  -1.125 -71.155 
-12.880  -9.964 -65.309 
  9.266   3.373 -61.721 
  2.246  -8.419 -62.709 
 14.477  -5.975 -70.813 
-11.902   5.477 -69.171 
  6.880   5.268 -63.067 
  7.801  10.526 -62.787 
 12.134   2.988 -70.892 
 -0.798   2.575 -63.913 
 10.812  -8.477 -70.061 
 -8.585 -11.997 -66.183 
-13.939  -6.327 -74.777 
 -5.189 -10.948 -60.057 
-11.614  10.271 -68.694 
  9.708  -1.813 -72.785 
 15.230  11.937 -71.120 
  9.242  12.038 -71.126 
 12.241 -11.113 -69.370 
  1.645   4.302 -64.993 
 -6.658   3.623 -77.101 
 -3.707   0.357 -58.795 
 -5.063  -2.086 -65.788 
 -2.053  -3.645 -62.554 
 12.988  -9.044 -67.892 
  3.329   1.434 -71.822 
  9.942   7.645 -67.193 
  9.640   2.676 -71.141 
 11.939  -9.787 -61.207 
 14.020   0.210 -65.275 
-13.191 -12.676 -66.528 
 12.749  -6.004 -60.174 
  9.698   9.199 -62.248 
  4.589  11.587 -65.938 
 -3.789  11.097 -68.864 
  1.726 -10.927 -73.727 
 -8.232  12.296 -73.633 
 13.405   8.226 -74.536 
 12.151  -7.020 -65.958 
  6.548   3.145 -68.471 
-10.007   1.393 -64.281 
 12.767  -3.601 -70.269 
 -8.688 -10.519 -64.707 
  7.657  -1.043 -67.863 
-12.838  -2.438 -77.329 
 -0.457   2.702 -68.167 
  2.667   3.072 -70.262 
 -0.293  -0.491 -63.772 
 -1.330   7.653 -68.912 
 -8.421   6.271 -55.769 
 -0.658  -6.835 -72.879 
  2.494   1.329 -71.017 
 -0.426  -9.611 -66.623 
 -7.460  -2.013 -76.167 
  5.199  -8.608 -67.980 
  4.447   1.653 -72.654 
  8.350  -0.564 -70.593 
 -2.018 -11.346 -65.070 
  0.986   8.370 -66.405 
-11.477   2.558 -64.565 
  7.838   0.659 -63.657 
 10.034  -5.463 -71.923 
-12.673   3.263 -64.064 
 10.782  -9.088 -77.921 
 -4.031  -7.431 -71.117 
 -4.793  -9.209 -72.084 
  3.720  -4.189 -69.605 
 10.244  10.905 -64.293 
 -4.778  -9.245 -66.216 
 10.916  12.393 -71.990 
 15.797 -10.371 -76.167 
 -1.252  12.300 -63.694 
 -9.343  -2.303 -73.067 
 15.860  -2.666 -66.387 
 -8.134  -1.505 -58.804 
-10.607   6.220 -67.038 
  2.781 -12.164 -71.273 
 -4.674   1.530 -59.359 

 VERTICES 426 852 
1 0 
1 1 
1 2 
1 3 
1 4 
1 5 
1 6 
1 7 
1 8 
1 9 
1 10 
1 11 
1 12 
1 13 
1 14 
1 15 
1 16 
1 17 
1 18 
1 19 
1 20 
1 21 
1 22 
1 23 
1 24 
1 25 
1 26 
1 27 
1 28 
1 29 
1 30 
1 31 
1 32 
1 33 
1 34 
1 35 
1 36 
1 37 
1 38 
1 39 
1 40 
1 41 
1 42 
1 43 
1 44 
1 45 
1 46 
1 47 
1 48 
1 49 
1 50 
1 51 
1 52 
1 53 
1 54 
1 55 
1 56 
1 57 
1 58 
1 59 
1 60 
1 61 
1 62 
1 63 
1 64 
1 65 
1 66 
1 67 
1 68 
1 69 
1 70 
1 71 
1 72 
1 73 
1 74 
1 75 
1 76 
1 77 
1 78 
1 79 
1 80 
1 81 
1 82 
1 83 
1 84 
1 85 
1 86 
1 87 
1 88 
1 89 
1 90 
1 91 
1 92 
1 93 
1 94 
1 95 
1 96 
1 97 
1 98 
1 99 
1 100 
1 101 
1 102 
1 103 
1 104 
1 105 
1 106 
1 107 
1 108 
1 109 
1 110 
1 111 
1 112 
1 113 
1 114 
1 115 
1 116 
1 117 
1 118 
1 119 
1 120 
1 121 
1 122 
1 123 
1 124 
1 125 
1 126 
1 127 
1 128 
1 129 
1 130 
1 131 
1 132 
1 133 
1 134 
1 135 
1 136 
1 137 
1 138 
1 139 
1 140 
1 141 
1 142 
1 143 
1 144 
1 145 
1 146 
1 147 
1 148 
1 149 
1 150 
1 151 
1 152 
1 153 
1 154 
1 155 
1 156 
1 157 
1 158 
1 159 
1 160 
1 161 
1 162 
1 163 
1 164 
1 165 
1 166 
1 167 
1 168 
1 169 
1 170 
1 171 
1 172 
1 173 
1 174 
1 175 
1 176 
1 177 
1 178 
1 179 
1 180 
1 181 
1 182 
1 183 
1 184 
1 185 
1 186 
1 187 
1 188 
1 189 
1 190 
1 191 
1 192 
1 193 
1 194 
1 195 
1 196 
1 197 
1 198 
1 199 
1 200 
1 201 
1 202 
1 203 
1 204 
1 205 
1 206 
1 207 
1 208 
1 209 
1 210 
1 211 
1 212 
1 213 
1 214 
1 215 
1 216 
1 217 
1 218 
1 219 
1 220 
1 221 
1 222 
1 223 
1 224 
1 225 
1 226 
1 227 
1 228 
1 229 
1 230 
1 231 
1 232 
1 233 
1 234 
1 235 
1 236 
1 237 
1 238 
1 239 
1 240 
1 241 
1 242 
1 243 
1 244 
1 245 
1 246 
1 247 
1 248 
1 249 
1 250 
1 251 
1 252 
1 253 
1 254 
1 255 
1 256 
1 257 
1 258 
1 259 
1 260 
1 261 
1 262 
1 263 
1 264 
1 265 
1 266 
1 267 
1 268 
1 269 
1 270 
1 271 
1 272 
1 273 
1 274 
1 275 
1 276 
1 277 
1 278 
1 279 
1 280 
1 281 
1 282 
1 283 
1 284 
1 285 
1 286 
1 287 
1 288 
1 289 
1 290 
1 291 
1 292 
1 293 
1 294 
1 295 
1 296 
1 297 
1 298 
1 299 
1 300 
1 301 
1 302 
1 303 
1 304 
1 305 
1 306 
1 307 
1 308 
1 309 
1 310 
1 311 
1 312 
1 313 
1 314 
1 315 
1 316 
1 317 
1 318 
1 319 
1 320 
1 321 
1 322 
1 323 
1 324 
1 325 
1 326 
1 327 
1 328 
1 329 
1 330 
1 331 
1 332 
1 333 
1 334 
1 335 
1 336 
1 337 
1 338 
1 339 
1 340 
1 341 
1 342 
1 343 
1 344 
1 345 
1 346 
1 347 
1 348 
1 349 
1 350 
1 351 
1 352 
1 353 
1 354 
1 355 
1 356 
1 357 
1 358 
1 359 
1 360 
1 361 
1 362 
1 363 
1 364 
1 365 
1 366 
1 367 
1 368 
1 369 
1 370 
1 371 
1 372 
1 373 
1 374 
1 375 
1 376 
1 377 
1 378 
1 379 
1 380 
1 381 
1 382 
1 383 
1 384 
1 385 
1 386 
1 387 
1 388 
1 389 
1 390 
1 391 
1 392 
1 393 
1 394 
1 395 
1 396 
1 397 
1 398 
1 399 
1 400 
1 401 
1 402 
1 403 
1 404 
1 405 
1 406 
1 407 
1 408 
1 409 
1 410 
1 411 
1 412 
1 413 
1 414 
1 415 
1 416 
1 417 
1 418 
1 419 
1 420 
1 421 
1 422 
1 423 
1 424 
1 425 
POINT_DATA 426 
SCALARS MeanU double 1 
LOOKUP_TABLE default
0.08731 
0.16145 
0.18424 
0.21871 
0.07983 
0.17828 
0.17255 
0.17720 
0.12001 
0.13413 
0.16599 
0.08566 
0.10559 
0.11550 
0.09187 
0.20409 
0.16434 
0.06243 
0.19727 
0.13703 
0.08426 
0.07904 
0.19281 
0.14398 
0.17789 
0.10289 
0.13205 
0.14651 
0.10151 
0.11867 
0.13564 
0.11969 
0.09885 
0.24683 
0.11706 
0.14575 
0.15265 
0.15111 
0.11075 
0.08882 
0.11316 
0.07160 
0.14620 
0.21771 
0.15736 
0.13110 
0.11170 
0.22653 
0.08761 
0.16857 
0.12267 
0.08860 
0.15707 
0.15615 
0.15169 
0.15290 
0.05893 
0.14150 
0.17333 
0.07173 
0.15908 
0.11874 
0.16969 
0.15090 
0.24564 
0.10983 
0.08830 
0.20456 
0.14499 
0.24964 
0.08060 
0.18520 
0.12602 
0.06553 
0.08394 
0.14265 
0.10420 
0.09940 
0.21041 
0.16278 
0.12018 
0.03677 
0.11509 
0.08108 
0.10240 
0.16535 
0.14020 
0.12962 
0.22533 
0.16659 
0.15064 
0.10155 
0.12924 
0.24400 
0.06431 
0.17603 
0.09199 
0.08699 
0.10595 
0.09146 
0.09803 
0.06232 
0.13695 
0.08211 
0.05912 
0.09631 
0.06338 
0.07826 
0.07337 
0.10364 
0.22107 
0.05470 
0.12294 
0.13486 
0.12214 
0.20666 
0.11673 
0.06587 
0.20177 
0.20998 
0.18431 
0.10438 
0.10802 
0.20867 
0.11306 
0.11864 
0.19628 
0.02266 
0.13646 
0.19600 
0.11281 
0.21298 
0.05585 
0.08897 
0.14219 
0.12158 
0.18785 
0.15843 
0.09499 
0.05613 
0.29329 
0.10323 
0.17637 
0.04826 
0.09777 
0.05542 
0.19573 
0.14645 
0.10391 
0.19043 
0.07028 
0.16892 
0.08770 
0.09393 
0.12485 
0.17317 
0.13477 
0.10673 
0.28938 
0.11775 
0.20303 
0.11008 
0.09945 
0.15842 
0.12596 
0.11485 
0.03951 
0.16488 
0.12534 
0.08852 
0.14205 
0.14447 
0.15732 
0.04364 
0.11134 
0.16316 
0.08540 
0.06149 
0.18338 
0.15685 
0.07609 
0.13102 
0.07390 
0.06072 
0.10341 
0.10693 
0.16768 
0.09157 
0.08439 
0.13565 
0.14023 
0.13154 
0.09661 
0.12045 
0.09743 
0.12399 
0.13344 
0.11405 
0.19184 
0.16469 
0.17301 
0.13281 
0.07412 
0.15813 
0.12796 
0.14940 
0.08411 
0.26553 
0.11823 
0.15534 
0.18697 
0.11965 
0.12391 
0.11157 
0.10329 
0.11619 
0.13858 
0.05324 
0.10139 
0.06105 
0.16235 
0.15124 
0.25843 
0.08658 
0.10422 
0.21991 
0.12839 
0.21329 
0.16757 
0.09535 
0.03024 
0.17932 
0.12185 
0.12130 
0.18484 
0.09596 
0.12690 
0.21697 
0.13490 
0.09755 
0.09657 
0.06667 
0.18966 
0.14128 
0.05700 
0.22947 
0.23105 
0.18941 
0.09268 
0.06026 
0.05648 
0.13200 
0.11521 
0.05671 
0.12606 
0.07828 
0.16158 
0.09668 
0.12080 
0.11764 
0.14263 
0.14115 
0.15364 
0.11271 
0.10095 
0.13399 
0.06873 
0.07685 
0.31425 
0.13934 
0.07070 
0.09270 
0.14325 
0.15806 
0.25753 
0.06982 
0.14116 
0.10396 
0.08685 
0.15584 
0.13470 
0.13419 
0.15022 
0.19146 
0.25652 
0.09981 
0.17206 
0.04926 
0.17711 
0.21155 
0.16071 
0.07538 
0.10138 
0.09230 
0.12232 
0.10009 
0.13454 
0.12952 
0.12846 
0.08909 
0.25819 
0.17880 
0.13466 
0.04111 
0.09716 
0.18209 
0.24852 
0.16661 
0.09191 
0.12971 
0.15288 
0.12449 
0.07078 
0.19205 
0.11388 
0.14924 
0.22236 
0.21690 
0.18891 
0.06520 
0.29806 
0.11160 
0.22777 
0.14824 
0.22320 
0.17597 
0.26705 
0.17438 
0.08048 
0.12397 
0.12147 
0.11028 
0.23873 
0.08488 
0.15466 
0.14312 
0.10517 
0.19089 
0.05534 
0.15581 
0.16902 
0.10824 
0.10550 
0.16696 
0.23041 
0.26179 
0.13520 
0.08343 
0.17394 
0.19803 
0.11032 
0.12393 
0.12367 
0.21789 
0.16400 
0.14919 
0.08438 
0.04890 
0.07823 
0.11013 
0.22600 
0.13726 
0.15668 
0.15951 
0.16216 
0.21726 
0.08231 
0.09465 
0.23888 
0.11657 
0.18788 
0.19979 
0.11499 
0.04272 
0.12593 
0.22942 
0.04916 
0.15020 
0.12745 
0.16760 
0.11746 
0.09298 
0.18075 
0.13594 
0.16505 
0.29592 
0.07877 
0.08130 
0.15008 
0.10877 
0.09985 
0.20714 
0.28490 
0.06188 
0.07496 
0.08645 
0.09919 
0.07672 
0.20494 
0.17973 
0.12074 
0.07904 
0.15529 
0.07424 
0.19006 
0.15746 
0.23811 
0.23097 
0.08572 
0.08314 
0.19506 
0.12037 
0.14944 
0.09391 
0.22597 
0.18156 
0.07286 
0.10353 
0.12189 
0.16148 
0.06282 
0.27727 
0.11170 
0.08934 
0.08145 
0.20044 

 VECTORS Umean float 
0.02800 -0.01400 -0.08150 
0.02450 0.07750 -0.13950 
0.04500 -0.04650 -0.17250 
-0.07700 0.09750 -0.18000 
0.07050 0.03100 0.02100 
0.07250 0.15750 -0.04150 
0.02250 0.16250 -0.05350 
-0.10950 0.11300 0.08150 
-0.00700 0.09650 -0.07100 
0.01800 0.11450 -0.06750 
-0.02150 0.14300 -0.08150 
0.00400 -0.02900 -0.08050 
-0.02050 -0.02300 -0.10100 
0.09700 -0.00500 -0.06250 
0.00400 -0.04500 -0.08000 
-0.18200 0.04050 0.08300 
0.01350 0.14900 -0.06800 
0.01150 -0.05950 0.01500 
0.00500 0.19300 0.04050 
0.02700 0.01500 -0.13350 
-0.01450 -0.08300 0.00050 
0.03800 -0.00650 -0.06900 
0.06250 0.14950 -0.10450 
0.01900 -0.12950 -0.06000 
0.10400 0.11400 -0.08850 
0.06050 0.07550 -0.03500 
-0.04200 0.09050 -0.08650 
0.02200 -0.13800 -0.04400 
0.03150 0.04750 -0.08400 
-0.06300 0.05750 -0.08250 
0.07850 -0.11050 0.00500 
0.02600 -0.06800 -0.09500 
0.03900 0.08250 -0.03800 
0.12050 0.16500 -0.13850 
-0.02500 -0.11350 0.01400 
0.08650 0.11550 0.02050 
-0.13900 -0.01950 -0.06000 
0.00800 0.14550 0.04000 
0.05200 0.07350 -0.06450 
0.00150 0.07050 -0.05400 
0.00450 -0.11300 -0.00400 
-0.06450 0.02750 0.01450 
-0.03850 0.04400 -0.13400 
-0.11900 -0.17300 -0.05750 
0.01400 -0.05300 -0.14750 
-0.02650 0.09350 -0.08800 
0.06750 0.06750 -0.05800 
-0.00800 0.20900 0.08700 
0.06300 -0.01850 -0.05800 
0.10200 0.10000 -0.08950 
-0.09400 -0.06400 -0.04600 
0.08600 0.01350 0.01650 
0.02150 0.10200 -0.11750 
0.02550 -0.00400 -0.15400 
0.11250 0.02550 -0.09850 
0.03200 0.00200 -0.14950 
0.02250 0.03750 0.03950 
-0.10700 -0.00400 0.09250 
0.15250 -0.01750 -0.08050 
0.02100 0.04850 0.04850 
0.01150 -0.04200 -0.15300 
-0.06850 -0.06150 -0.07500 
-0.03750 0.05800 -0.15500 
0.06650 0.03250 -0.13150 
-0.17150 -0.16300 -0.06600 
0.04350 0.04550 0.09000 
-0.03950 -0.06950 -0.03750 
0.02600 0.04650 -0.19750 
0.02800 0.06700 -0.12550 
0.07200 -0.00400 -0.23900 
0.06250 0.02800 0.04250 
-0.09200 -0.06500 -0.14700 
0.11500 0.04750 0.02000 
-0.05400 -0.02650 -0.02600 
0.07000 0.00550 -0.04600 
-0.13000 0.03000 -0.05050 
0.06400 -0.02100 -0.07950 
-0.03400 -0.06850 -0.06350 
0.05550 0.03150 -0.20050 
0.02600 0.10400 -0.12250 
0.00600 0.11450 -0.03600 
-0.00200 -0.00400 0.03650 
-0.05500 -0.02050 -0.09900 
-0.00700 0.06900 -0.04200 
-0.02450 -0.06750 -0.07300 
0.12500 0.04700 -0.09750 
-0.00400 -0.02950 -0.13700 
0.02950 0.00750 0.12600 
0.06600 0.11450 0.18250 
0.14400 0.08250 0.01450 
-0.03250 0.03000 -0.14400 
0.06350 0.05800 -0.05400 
-0.00650 0.10050 0.08100 
0.05200 0.19950 -0.13050 
-0.02750 0.04400 0.03800 
0.01800 -0.11950 -0.12800 
-0.04200 -0.03700 -0.07300 
-0.04850 -0.07200 0.00550 
-0.03600 0.05200 0.08500 
0.03800 0.02100 0.08050 
0.08500 -0.04000 0.02800 
-0.04950 0.03700 0.00800 
-0.12150 -0.03200 -0.05450 
-0.02700 -0.02150 -0.07450 
0.00550 0.00650 -0.05850 
-0.08150 -0.03450 0.03800 
0.03300 -0.00350 -0.05400 
-0.00450 0.03150 -0.07150 
-0.06350 -0.00950 -0.03550 
-0.10050 0.02500 -0.00400 
0.16150 0.01700 -0.15000 
0.04000 0.01150 -0.03550 
-0.10700 0.04050 -0.04500 
0.10450 0.07750 0.03550 
0.07900 0.08900 -0.02750 
-0.03550 -0.01550 -0.20300 
-0.11250 0.03100 -0.00300 
0.03350 0.03100 -0.04750 
-0.17800 0.00150 0.09500 
0.05500 -0.08600 -0.18350 
-0.02900 0.08200 -0.16250 
-0.04650 -0.01900 -0.09150 
0.10300 0.03200 0.00600 
-0.06400 -0.19550 0.03500 
-0.07700 -0.06050 0.05650 
-0.02500 0.10100 0.05700 
-0.14200 -0.12150 -0.06000 
-0.01150 -0.00100 0.01950 
-0.06800 0.00850 0.11800 
0.18650 0.05650 0.02100 
0.00450 -0.00700 -0.11250 
-0.03750 -0.20550 0.04150 
0.00550 0.00300 -0.05550 
-0.03150 0.03900 -0.07350 
-0.05650 -0.09900 0.08500 
-0.06100 -0.10500 -0.00600 
-0.07700 0.16050 -0.06000 
-0.08600 0.05850 -0.11950 
0.07550 0.04000 -0.04150 
0.04200 -0.00950 -0.03600 
0.06150 0.02700 -0.28550 
0.07950 0.06050 0.02600 
0.08850 -0.11650 -0.09850 
0.00350 0.03950 0.02750 
-0.07600 0.06000 -0.01350 
-0.03300 0.00950 -0.04350 
-0.10050 -0.11700 -0.12050 
0.09400 0.10750 0.03250 
0.03900 0.09550 0.01250 
0.00800 -0.01700 -0.18950 
0.00250 -0.01550 0.06850 
0.13000 0.05200 -0.09450 
-0.03100 -0.00250 -0.08200 
-0.02650 -0.00450 -0.09000 
0.03200 0.06450 -0.10200 
0.08250 -0.06100 -0.13950 
-0.08900 -0.09400 0.03750 
0.01900 0.06500 -0.08250 
0.10400 0.03700 -0.26750 
-0.11300 0.01500 -0.02950 
-0.08400 0.16200 -0.08900 
0.09800 -0.04950 0.00800 
-0.02450 -0.04900 -0.08300 
-0.04250 0.04100 -0.14700 
0.09100 -0.02300 -0.08400 
-0.05450 0.08700 0.05150 
-0.00650 0.02150 -0.03250 
0.12250 0.09450 0.05700 
0.10300 0.05000 0.05100 
-0.04150 -0.00550 -0.07800 
-0.00750 0.10350 -0.09700 
-0.11250 0.06050 -0.06750 
-0.02550 -0.12200 0.09600 
0.04350 0.00250 0.00250 
0.05200 -0.09650 0.01950 
-0.02450 -0.05400 -0.15200 
-0.02500 0.07850 0.02250 
0.01450 0.00950 0.05900 
0.02500 0.09950 -0.15200 
-0.00800 0.09700 0.12300 
0.03600 -0.02550 -0.06200 
-0.08650 -0.08700 -0.04600 
0.05250 0.04350 -0.02850 
0.05950 0.01200 0.00150 
-0.08750 -0.03250 0.04450 
-0.03950 -0.06900 -0.07150 
0.15700 -0.03800 -0.04500 
-0.02350 -0.05350 -0.07050 
0.01600 0.07200 -0.04100 
0.13000 -0.01300 -0.03650 
-0.09500 0.04950 -0.09050 
0.02050 0.05100 -0.11950 
0.09100 0.02950 0.01350 
-0.04350 0.02500 -0.10950 
0.00950 -0.03850 -0.08900 
0.00900 -0.10700 0.06200 
-0.10600 -0.06000 0.05450 
0.06350 -0.02800 -0.09050 
0.09000 -0.04250 -0.16400 
0.03100 -0.00900 -0.16150 
-0.02500 -0.15600 -0.07050 
0.00750 0.13050 -0.02350 
-0.05550 0.04900 0.00350 
-0.05350 0.08150 0.12450 
-0.08800 -0.02300 -0.09000 
-0.08500 0.08200 -0.09150 
0.00350 0.08400 -0.00250 
0.12900 -0.00650 -0.23200 
0.05250 0.03350 -0.10050 
0.00800 0.12600 0.09050 
0.03100 0.18350 0.01800 
0.04400 0.01300 -0.11050 
0.10400 0.04400 0.05100 
0.11050 0.01250 0.00900 
-0.04450 0.08050 0.04700 
0.08300 -0.00700 -0.08100 
-0.13300 0.03550 -0.01600 
-0.03150 -0.00600 -0.04250 
-0.02500 0.03450 -0.09200 
0.00400 -0.01700 0.05850 
-0.00700 0.01500 -0.16150 
0.06600 0.13250 0.03100 
0.11800 -0.03950 -0.22650 
0.08000 0.02600 -0.02050 
-0.09500 -0.02400 -0.03550 
-0.10050 -0.14250 0.13400 
-0.03650 0.02950 0.11950 
0.10950 0.08800 -0.16050 
0.12600 0.01800 -0.10900 
0.03800 0.06500 -0.05850 
0.02350 -0.00100 0.01900 
0.05550 0.04300 -0.16500 
-0.03150 0.07150 -0.09350 
0.07250 0.00700 -0.09700 
0.16650 -0.05100 0.06200 
-0.04450 0.01600 -0.08350 
0.00900 -0.06350 -0.10950 
-0.11100 0.09400 -0.16100 
-0.07400 -0.07850 -0.08100 
0.02600 0.05800 -0.07400 
0.09500 -0.01250 -0.01200 
0.01450 0.06500 -0.00300 
0.03650 0.18600 -0.00650 
-0.02600 -0.01550 -0.13800 
-0.02750 -0.02850 0.04100 
-0.17350 0.09950 -0.11250 
0.04650 0.12600 -0.18800 
0.06450 0.08500 0.15650 
-0.05750 0.03150 -0.06550 
-0.01800 -0.00100 -0.05750 
0.02650 0.04400 -0.02350 
0.08550 -0.03150 -0.09550 
-0.04450 0.05650 -0.09000 
-0.04050 0.01150 -0.03800 
0.10450 0.04150 -0.05700 
-0.05500 0.04900 0.02650 
0.15200 0.04300 0.03400 
0.03700 0.05850 -0.06750 
-0.07150 -0.04750 -0.08500 
0.08600 0.05800 -0.05550 
-0.10050 0.03750 -0.09400 
-0.00350 0.08900 -0.10950 
0.09550 0.09250 -0.07700 
0.00550 0.02150 -0.11050 
0.09050 0.01900 0.04050 
0.00200 0.12450 -0.04950 
-0.04550 0.05150 0.00100 
0.02800 0.03300 -0.06350 
-0.06700 -0.13450 -0.27600 
-0.02250 0.13750 0.00200 
-0.04400 0.04550 0.03150 
0.08950 -0.02400 0.00250 
-0.00700 0.11000 -0.09150 
-0.01300 0.08200 -0.13450 
-0.04200 0.04250 -0.25050 
0.06850 0.00850 0.01050 
-0.13000 -0.00050 -0.05500 
-0.07250 -0.00050 -0.07450 
-0.02000 -0.06850 -0.04950 
-0.06050 0.14200 -0.02150 
0.09150 0.04600 -0.08750 
-0.00350 0.01750 -0.13300 
0.00200 -0.08550 -0.12350 
-0.11700 0.15150 -0.00400 
-0.03850 -0.15000 -0.20450 
-0.02250 0.06750 -0.07000 
-0.08000 0.05250 -0.14300 
-0.01450 -0.02400 0.04050 
0.08200 0.13100 -0.08650 
0.04800 0.00350 0.20600 
0.01950 -0.00250 -0.15950 
-0.05300 0.03200 -0.04300 
0.03600 -0.06850 -0.06550 
0.07750 0.05000 -0.00350 
0.01850 0.08500 -0.08600 
0.08550 0.00750 0.05150 
-0.12300 0.03150 -0.04450 
-0.11600 0.04950 0.02950 
0.07900 -0.04550 -0.09050 
-0.00750 0.01500 -0.08750 
-0.05050 0.06200 -0.24550 
-0.03550 0.04050 -0.17050 
0.10550 -0.02100 -0.08100 
0.02100 0.01500 0.03200 
0.07650 0.03650 0.04750 
0.01150 -0.12850 0.12850 
0.04700 -0.00400 -0.24400 
-0.01500 -0.07200 0.14950 
0.01950 -0.08250 -0.03550 
-0.04900 -0.01200 -0.11950 
-0.02200 0.06200 -0.13800 
-0.05000 0.06150 -0.09600 
0.05650 0.02700 -0.03300 
0.06650 0.05200 -0.17250 
-0.00550 -0.09300 -0.06550 
-0.01450 0.01750 -0.14750 
-0.07450 -0.12450 -0.16850 
-0.08500 0.06100 -0.19000 
0.15300 0.01700 0.10950 
0.01550 0.06300 -0.00650 
0.00900 0.29700 -0.02350 
-0.03750 0.04050 -0.09700 
0.16450 0.14800 -0.05400 
0.07450 0.11800 -0.05000 
-0.04350 -0.01350 -0.21850 
0.05750 -0.03300 -0.16300 
0.16600 0.11150 -0.17700 
0.00450 -0.11150 -0.13400 
-0.01250 -0.06900 -0.03950 
-0.06150 0.05750 0.09100 
0.04900 -0.01200 -0.11050 
0.07300 -0.08100 0.01650 
-0.09650 -0.06950 0.20700 
0.07650 0.03600 0.00750 
-0.07450 -0.12950 -0.04000 
0.04800 0.04800 -0.12600 
-0.06800 -0.01400 -0.07900 
0.09450 -0.04550 -0.15950 
0.03750 -0.03000 0.02750 
0.14250 0.00150 0.06300 
-0.03400 -0.06900 -0.15050 
0.08000 -0.03400 -0.06450 
0.01500 0.04750 -0.09300 
-0.04900 0.00600 -0.15950 
-0.06500 0.12400 0.18300 
0.16200 0.12000 -0.16700 
0.04200 0.09550 -0.08600 
0.04300 0.07150 -0.00000 
0.00350 -0.13550 -0.10900 
-0.03850 0.05600 -0.18600 
-0.07500 0.04750 -0.06550 
-0.06100 0.02250 -0.10550 
-0.07450 -0.06700 -0.07250 
0.01400 0.18100 -0.12050 
-0.11000 0.11650 -0.03500 
-0.03600 -0.08100 0.12000 
-0.04200 0.06400 -0.03550 
-0.00650 -0.03300 -0.03550 
0.07800 -0.00450 -0.00400 
0.08250 -0.04150 -0.06000 
0.13100 0.10250 -0.15300 
-0.11800 -0.01250 0.06900 
-0.03800 0.14050 0.05800 
0.04600 0.00850 -0.15250 
0.13800 0.07850 -0.03300 
-0.21150 -0.01750 -0.04650 
0.05750 0.04500 0.03800 
0.08300 -0.04550 0.00050 
0.17600 0.15150 -0.05600 
-0.04450 -0.04250 -0.09900 
0.06300 0.00100 -0.17700 
0.03100 -0.17300 -0.09500 
0.09600 0.02950 0.05600 
0.02800 -0.02100 -0.02450 
0.04850 -0.07100 -0.09200 
-0.17950 0.02850 -0.14000 
-0.01100 0.04550 0.01500 
0.05600 -0.07650 -0.11650 
-0.04750 -0.05900 -0.10250 
-0.14800 0.02800 -0.07350 
-0.00400 0.04100 0.11000 
-0.00700 -0.08050 0.04600 
-0.15950 0.04900 0.06950 
0.07650 0.08750 -0.07050 
-0.06900 -0.02400 -0.14800 
0.07250 0.17150 -0.23000 
-0.02500 -0.05550 -0.05000 
-0.03000 0.00300 -0.07550 
-0.06800 0.02950 -0.13050 
0.06650 0.07950 -0.03300 
-0.02800 -0.06950 -0.06600 
0.04400 0.03700 -0.19900 
0.18400 0.12850 -0.17550 
-0.00900 0.03150 -0.05250 
0.06500 -0.03500 -0.01300 
-0.02700 -0.06700 0.04750 
-0.09700 0.00300 -0.02050 
-0.01900 0.02200 -0.07100 
0.19900 0.02050 -0.04450 
0.00650 0.02400 -0.17800 
0.01200 -0.10350 -0.06100 
-0.00800 0.07800 -0.01000 
0.00300 -0.15500 0.00900 
0.02000 -0.06600 -0.02750 
0.03000 0.02850 -0.18550 
-0.06100 -0.14100 -0.03450 
-0.17200 -0.15150 0.06450 
-0.13400 0.05300 -0.18050 
0.01100 0.02050 -0.08250 
0.02750 0.06750 -0.04000 
-0.12900 0.02300 -0.14450 
0.08000 0.01300 -0.08900 
0.14700 -0.00850 -0.02550 
0.01850 0.09200 0.00350 
0.09350 -0.00950 -0.20550 
-0.00700 -0.11100 0.14350 
0.02800 -0.05550 -0.03800 
-0.08350 -0.04950 -0.03600 
0.11450 -0.03350 -0.02500 
-0.08600 0.13300 0.03150 
0.03750 0.04950 0.00950 
0.16150 -0.06600 -0.21550 
0.01900 -0.10000 -0.04600 
-0.01250 0.08650 0.01850 
0.05450 -0.00200 -0.06050 
-0.06800 -0.05450 -0.18050 
SCALARS NextParticleID double 1 
LOOKUP_TABLE default
13 
4 
91 
134 
332 
1 
25 
56 
22 
329 
337 
6 
12 
28 
172 
19 
340 
123 
39 
756 
60 
30 
213 
89 
58 
174 
426 
2 
27 
125 
345 
0 
55 
42 
53 
434 
41 
350 
212 
38 
758 
20 
63 
62 
52 
171 
57 
21 
231 
14 
346 
36 
74 
793 
54 
116 
99 
543 
24 
387 
348 
95 
65 
374 
761 
93 
47 
17 
86 
157 
109 
163 
70 
32 
764 
376 
37 
85 
416 
175 
81 
218 
51 
103 
126 
71 
421 
150 
195 
245 
180 
766 
82 
354 
433 
183 
102 
359 
59 
378 
177 
144 
104 
128 
428 
147 
241 
545 
88 
130 
154 
67 
90 
160 
108 
101 
156 
397 
120 
295 
105 
178 
98 
372 
279 
64 
50 
113 
137 
603 
164 
210 
135 
167 
170 
493 
402 
142 
143 
169 
106 
153 
196 
280 
367 
182 
349 
651 
186 
235 
211 
124 
114 
203 
44 
112 
158 
238 
511 
479 
413 
207 
567 
168 
395 
138 
448 
778 
794 
155 
110 
209 
277 
240 
221 
152 
392 
202 
383 
79 
15 
43 
259 
225 
151 
388 
795 
475 
364 
61 
162 
501 
127 
220 
246 
407 
140 
309 
122 
773 
197 
193 
237 
417 
344 
132 
763 
271 
192 
244 
247 
266 
206 
188 
191 
312 
190 
437 
282 
264 
255 
166 
304 
591 