# vtk DataFile Version 2.0 
Xm, Ym, Zm, Uvecs, timestep 10077 
ASCII 
 
DATASET POLYDATA POINTS 526 float 
 -0.927  -1.726 -71.197 
 -1.888   0.462 -70.290 
 -7.830  -2.792 -71.344 
  8.951   1.339 -70.213 
 -4.306  11.945 -72.812 
  8.559   0.705 -69.841 
 -2.608   5.567 -67.214 
-10.348   3.308 -71.918 
 14.771  -0.117 -71.463 
  3.616   3.968 -70.368 
  1.775   3.289 -70.076 
  2.752   4.104 -67.825 
  9.504  -1.656 -71.163 
 -5.777   6.827 -68.742 
 11.967  -2.407 -69.230 
 -9.229  -9.572 -66.618 
  6.876   0.258 -67.508 
-10.110  -4.517 -72.469 
 -3.641   3.291 -68.968 
-15.595  -5.860 -77.172 
  7.437   1.356 -67.765 
  9.723   2.263 -71.463 
 -2.103   0.844 -75.014 
 -4.705   4.584 -73.316 
 -6.165   4.953 -69.935 
-12.153  -1.430 -74.091 
 -8.144  -8.023 -70.543 
  4.797  -2.508 -68.448 
  4.950   0.154 -67.139 
 -2.306  -8.059 -68.321 
 -7.231  -1.136 -63.876 
 -1.801   3.920 -65.028 
  6.377  10.817 -71.810 
  1.276  -2.450 -73.546 
 -5.910   6.623 -71.558 
  2.061   2.450 -76.437 
  7.922   7.140 -72.412 
 -2.527  10.807 -71.214 
  4.682   8.598 -65.614 
-10.029  -4.567 -69.708 
 11.134  -2.808 -72.775 
 -7.385   6.512 -72.000 
 17.947   3.575 -71.148 
-10.808  -0.772 -75.918 
  8.770   7.238 -67.926 
 -0.408   3.583 -67.767 
 -6.244   0.925 -71.514 
 -2.521   5.592 -74.193 
 -3.018  -0.344 -69.416 
  2.605  -3.680 -74.080 
 -3.228  12.394 -66.320 
 -9.431   6.571 -66.864 
 -1.973  -7.954 -74.693 
 -7.854  10.592 -70.697 
  4.500  12.156 -65.356 
 -4.115  -2.251 -74.385 
 -1.847  -0.605 -70.048 
 10.099   4.622 -66.069 
  1.819   3.902 -65.970 
  8.271  10.602 -67.883 
  1.089   1.164 -66.314 
-12.380   7.291 -72.593 
 -1.815  -6.580 -68.580 
  8.070  -5.198 -67.881 
  4.553  -7.520 -67.359 
  6.156   5.167 -71.519 
 -5.276  -2.327 -67.608 
-10.669  -3.297 -70.135 
  8.809   7.807 -69.987 
 -2.653  -0.737 -64.678 
 -4.867   7.074 -69.844 
  0.563  -1.930 -73.231 
-12.809  12.133 -73.090 
 -8.334   8.620 -64.231 
  6.986  -0.554 -68.078 
  9.302   0.462 -70.535 
 -5.199  -4.697 -66.516 
  2.002 -12.179 -68.226 
 -2.261  -2.889 -70.528 
 -7.903  -5.025 -67.771 
  1.972   9.531 -68.828 
 -8.229   4.228 -67.447 
 -4.619  -1.739 -67.121 
 -7.963   0.220 -66.148 
-14.390   8.742 -72.298 
 -1.001  10.136 -63.704 
 -0.125  11.704 -64.966 
-14.129   0.160 -69.181 
 -2.646  -4.789 -67.535 
 -4.043 -12.586 -66.665 
 -1.817   8.489 -73.142 
 -7.636  12.909 -67.698 
 -5.993   0.693 -61.777 
  2.418   6.179 -70.135 
 -0.471  -6.479 -64.308 
  9.483  -3.683 -66.923 
 -5.236  -5.330 -69.675 
  6.889   9.471 -73.773 
  4.464   9.575 -68.111 
  8.508  -3.581 -70.839 
 -2.457   0.649 -64.585 
 -4.071  11.013 -72.174 
  3.244  10.825 -64.807 
-15.586   5.988 -70.772 
 13.922  -6.378 -67.233 
  5.844  -6.883 -64.453 
 -1.117   1.752 -71.953 
  9.299 -11.233 -65.311 
 -4.790  -6.898 -77.215 
 -9.717  10.166 -65.597 
 12.280   3.993 -73.587 
 -5.268   9.281 -63.890 
 -6.234   6.823 -68.582 
 -8.321  13.099 -64.757 
 13.194   4.103 -65.660 
  1.723 -11.559 -68.995 
  1.977   1.081 -68.971 
  5.029  -4.841 -66.044 
 -3.521   5.764 -69.632 
-13.888  10.583 -74.326 
 -4.067   9.537 -62.688 
 -9.024  11.124 -63.607 
  1.350  12.087 -70.191 
 15.881   6.534 -68.322 
 -1.934 -11.776 -64.510 
  8.198 -11.872 -69.385 
 11.899  -0.269 -73.537 
 -0.458   6.168 -60.671 
 -6.443  13.060 -64.454 
  8.024  -1.433 -72.988 
 -3.703  12.855 -66.200 
  1.609   6.408 -61.710 
 -5.960  -1.422 -75.278 
-15.552   7.440 -74.367 
 10.655  -9.820 -67.190 
 -1.224  -5.774 -64.000 
 -1.811  12.212 -61.865 
 -4.777 -10.627 -69.380 
  6.800  -1.773 -72.174 
  9.237  -1.386 -66.482 
 -1.293  12.883 -67.310 
  4.393  -6.204 -73.522 
 -4.148  12.349 -70.309 
  6.136  12.232 -73.484 
-10.637   0.221 -63.130 
 -0.801  -9.803 -66.365 
  4.583 -11.762 -70.972 
  8.980  -1.329 -71.570 
 -6.873   0.025 -67.034 
-15.431  -3.471 -72.214 
-12.817   7.347 -66.583 
 -0.669   3.035 -64.052 
 -7.634 -11.652 -71.585 
 -5.505  -6.430 -70.170 
  6.543   6.077 -66.213 
  2.424  -5.543 -66.203 
 -9.090  -8.589 -67.716 
 -3.441  -1.296 -70.401 
-13.398   8.015 -70.761 
  9.063  -8.191 -64.499 
 10.872  -2.279 -67.472 
-10.962  -4.792 -65.171 
  2.947  -3.794 -64.821 
 -7.047  -7.684 -65.302 
 12.038   6.607 -68.017 
  2.907  11.713 -66.698 
 -8.093   7.928 -67.199 
  1.788   5.314 -72.749 
 -7.184  -4.292 -68.852 
  5.545   0.587 -65.290 
 -4.398  -3.162 -63.813 
  0.070  -3.543 -60.927 
  1.126   1.245 -63.593 
  6.236   3.106 -74.233 
-10.280   7.676 -63.813 
  5.808  -6.695 -67.013 
  4.119 -12.172 -67.909 
 -1.212   8.078 -61.830 
 -7.499  -1.067 -61.181 
-12.043  -7.745 -68.287 
-13.108  -2.835 -68.206 
-13.944  -1.676 -66.188 
  0.948  -5.289 -70.956 
  9.673   3.445 -68.713 
  6.506  -8.958 -69.468 
  6.950   8.197 -63.992 
-12.010  -3.123 -64.864 
 -7.057   6.379 -61.862 
 -4.531  -8.925 -74.208 
 -4.917   3.018 -62.286 
  1.096  -4.648 -61.965 
 -6.357   9.343 -74.868 
  9.064  -7.643 -67.609 
  9.562  -7.896 -66.343 
  6.966  -7.814 -65.280 
  0.756   0.028 -61.040 
  3.860 -10.049 -73.207 
-11.724   1.776 -67.429 
  2.299  -0.661 -68.705 
  4.176  -4.026 -70.007 
-13.970  -3.716 -68.741 
  4.902   7.732 -61.386 
  0.899  12.867 -61.986 
  3.491  -8.640 -66.226 
  3.947   8.791 -66.737 
 -8.327  11.001 -69.767 
 -1.868  11.869 -69.436 
 -7.569   5.829 -70.124 
  9.672   7.348 -63.930 
  2.934  12.555 -65.838 
-15.889  -1.871 -73.132 
  1.449  -5.226 -70.585 
-13.672  -6.509 -70.949 
 -0.119  -6.258 -62.666 
 -6.364  11.566 -73.127 
-10.022  10.487 -75.932 
 -6.213  -1.317 -62.132 
-14.608   4.472 -69.449 
 10.985  -3.841 -65.262 
 -4.342   2.281 -73.578 
  6.285  -0.679 -73.127 
  1.408  -2.250 -65.797 
  3.086 -11.064 -67.263 
 -6.905  -3.197 -67.848 
-13.297  12.686 -66.777 
 -2.729   8.424 -65.892 
-11.008   6.710 -66.151 
  8.047  -8.806 -64.560 
 -2.934  -1.184 -64.394 
  9.702   5.893 -68.055 
-12.350  -9.174 -71.046 
  5.830   7.069 -75.641 
 -1.787   5.010 -69.484 
-14.171  -0.893 -67.202 
 -5.248   9.860 -69.478 
 -1.405  -8.262 -72.318 
 15.780   9.319 -70.070 
-15.511  -7.069 -75.016 
 -1.615  -9.280 -64.732 
  5.971   7.376 -66.525 
  5.460  -2.581 -71.256 
  0.466   4.504 -61.383 
  1.147   8.378 -66.742 
-10.569   0.806 -73.424 
  1.054  -1.919 -65.094 
 14.677   1.202 -71.571 
-13.474  -7.624 -72.364 
 -4.979  -9.800 -71.807 
 15.680  11.204 -72.909 
  9.108 -12.709 -66.448 
 -2.479   9.736 -67.989 
 -1.771  -7.191 -61.784 
 -0.017  10.986 -72.924 
  8.343  -8.551 -65.835 
  5.989   0.740 -67.551 
 12.368  -2.801 -71.995 
 13.285  -4.500 -64.355 
-11.376   2.562 -71.738 
 12.526   5.811 -63.951 
 11.560  -6.221 -71.009 
 -6.135   2.054 -62.456 
 13.660  -1.849 -66.107 
 15.021  10.036 -73.344 
-15.938 -10.071 -75.721 
  8.636   6.729 -65.118 
-11.989  -4.819 -77.457 
 14.163   0.722 -62.783 
  4.057  -2.481 -68.608 
 -8.734  -0.889 -66.368 
-11.663  -4.526 -75.418 
 -4.076  -3.818 -61.250 
 16.200  -1.556 -66.855 
 17.587   4.496 -71.797 
-13.047   0.179 -70.646 
 -4.268   2.846 -67.478 
  5.153  -1.135 -73.762 
 -8.660  -6.468 -59.867 
  2.997 -10.919 -68.888 
  8.286   9.744 -66.707 
 -9.526   3.378 -75.389 
 -3.577  -7.523 -74.264 
 16.456  -5.188 -73.570 
 -0.004 -11.108 -73.588 
  6.891  -5.934 -73.489 
 15.680  -2.752 -73.352 
  0.122  -5.343 -63.319 
 11.620  10.292 -70.356 
-12.608  -3.660 -64.627 
 -4.763 -11.241 -68.298 
 11.765   7.149 -64.150 
  9.386 -11.894 -68.596 
 -7.720   9.368 -63.554 
  1.938  -2.234 -72.797 
-13.642   6.078 -67.793 
 10.511  -7.858 -75.389 
  8.509  -6.050 -65.536 
 14.235  -1.341 -72.070 
  8.710   9.117 -71.194 
 14.794  -0.858 -64.949 
 13.570   5.005 -74.516 
 12.576  10.712 -68.073 
 -8.598   7.442 -73.587 
 10.486  -5.808 -70.518 
 -3.304  -6.265 -66.424 
 14.925   9.470 -65.314 
-10.486  -8.496 -74.184 
 -9.201   9.239 -74.993 
-11.397  -0.141 -63.568 
 -9.012   5.954 -58.445 
  6.383 -10.288 -67.674 
 11.573   8.268 -66.262 
-13.242 -10.292 -75.403 
-13.399   6.231 -69.655 
 -4.632  -4.947 -75.196 
 11.533 -11.538 -68.822 
 -7.719 -12.115 -75.601 
 12.310   9.642 -66.308 
 16.284   2.187 -72.224 
  1.363  -7.186 -66.204 
  9.694   4.614 -64.017 
 14.325  10.721 -69.041 
 -3.248  12.008 -66.331 
 -5.774  -4.791 -65.937 
 11.316   1.877 -67.153 
 -8.520   6.528 -71.963 
 -9.223   6.210 -73.584 
-13.611  11.864 -67.665 
  1.586 -10.944 -66.939 
 -6.290   9.966 -69.880 
-12.313   0.734 -72.148 
  1.312   2.200 -71.257 
 -7.486   2.657 -71.379 
  0.565  -9.075 -60.538 
 14.657  -3.819 -74.432 
 -5.128  -1.450 -69.788 
  2.346   7.679 -71.399 
 -9.627  11.778 -68.260 
-14.524   8.550 -77.019 
  0.333   5.481 -66.299 
  4.297   3.535 -68.218 
  0.137 -11.223 -69.230 
 -4.797  -1.124 -67.557 
  6.306  -8.209 -63.980 
 -2.827   5.351 -65.968 
 -7.168   1.836 -65.343 
  8.297   7.440 -66.697 
  8.341 -10.928 -60.620 
-15.052  -7.862 -73.890 
-10.009 -12.506 -67.867 
  6.377  -7.624 -66.838 
 -6.748   0.342 -63.904 
-12.218  10.133 -71.037 
  9.291  -2.900 -62.094 
 -0.518 -11.806 -70.642 
 -8.450  -7.918 -63.147 
 -1.623  -6.670 -76.964 
 10.185  12.708 -69.670 
  2.734  -9.822 -62.459 
 -2.490  10.834 -59.888 
  0.116   4.906 -74.996 
 -7.818   4.819 -66.069 
-12.367   4.996 -68.352 
  3.460  10.750 -77.452 
 -1.216  -3.245 -60.553 
 10.929   6.829 -76.567 
  1.900 -11.596 -76.118 
 -8.974  -5.218 -63.638 
  4.899   0.637 -61.682 
  5.245   4.430 -64.886 
 -7.476   2.486 -66.553 
 -4.968   1.285 -62.210 
  3.462   9.586 -72.914 
 -1.296   9.258 -73.688 
  4.892 -10.257 -60.642 
-14.282  -9.436 -73.898 
  6.348 -11.454 -65.465 
 -3.071  -1.604 -63.173 
 -8.142   0.551 -61.910 
  0.728  -3.587 -75.994 
 13.406   9.305 -63.445 
 -4.824  12.233 -62.234 
 12.333  -0.229 -71.416 
 -2.115   9.119 -66.124 
  1.098  -8.839 -64.151 
  4.393   2.886 -63.263 
 -2.665  -2.987 -73.893 
 -5.906   0.513 -64.777 
  3.415   3.947 -62.212 
  3.094  -3.665 -60.445 
-15.584   1.861 -73.073 
 -2.930  -5.185 -60.297 
  2.718  -2.427 -76.242 
  7.530   8.332 -73.149 
  9.583   4.129 -62.734 
 17.200 -12.040 -68.060 
 17.877   8.711 -68.938 
  7.708   8.767 -62.299 
 -6.310 -12.375 -65.983 
 13.262 -12.518 -64.197 
 -7.271 -12.070 -65.504 
 -3.065   6.409 -67.449 
 -7.835  -8.724 -60.693 
 11.035  -4.007 -62.115 
  1.146  10.794 -71.118 
  1.666  -6.520 -61.077 
-11.890   4.032 -62.329 
  7.806  -2.230 -59.252 
  6.062 -10.684 -67.020 
-10.297  -2.277 -61.635 
 -8.079   4.265 -60.534 
 -3.697  -8.264 -61.942 
-13.553  11.322 -65.696 
  7.931   3.824 -60.577 
 -1.688  -3.000 -60.665 
 -1.602  -0.645 -58.275 
  8.828 -12.365 -66.748 
 -4.537   7.331 -63.663 
  6.997  10.852 -73.670 
  2.495   8.537 -76.861 
  3.438 -10.579 -77.049 
  3.239 -10.291 -62.189 
 14.214  -6.160 -68.743 
 -5.901  -1.620 -62.162 
 10.679 -11.095 -71.698 
 11.782  10.642 -65.095 
-10.543 -10.155 -57.550 
  4.093  -6.928 -59.534 
-11.236   3.359 -75.022 
 -8.299   0.532 -72.308 
  6.819  -7.537 -64.227 
  5.186 -11.359 -66.371 
 -4.303  -3.496 -62.538 
 -3.863  10.087 -67.635 
 16.303 -11.736 -68.347 
-13.781  -3.915 -64.778 
  1.183 -11.194 -72.455 
 16.477  -9.968 -68.142 
 -4.175  -8.106 -67.555 
  4.388   1.459 -67.942 
 12.870   9.203 -72.434 
-10.962   1.312 -69.559 
  7.440  -6.954 -69.969 
 14.611   4.170 -62.585 
  7.986  -6.531 -63.034 
  7.667   7.678 -67.707 
  5.133   5.749 -61.224 
 17.526  -6.819 -66.518 
 -5.142  -0.799 -69.972 
 -6.333  -4.984 -72.446 
  2.616   8.862 -61.514 
 -4.223   4.662 -66.465 
 16.894  -6.420 -75.706 
 11.286   0.676 -63.374 
 -1.587  -3.825 -73.128 
 12.976  -7.179 -65.613 
 -7.266   5.920 -66.688 
  7.344  -8.626 -72.149 
-14.125  -8.046 -72.737 
 -0.288   4.497 -58.853 
-15.565   8.688 -76.344 
 -6.446  -8.878 -63.862 
 17.038  -0.978 -72.500 
-14.710   1.013 -67.311 
 14.635   2.144 -66.819 
  2.702   7.489 -64.071 
  4.314   4.942 -69.695 
  5.366   3.530 -67.436 
 14.618   3.301 -73.280 
-14.979  -6.591 -74.216 
 15.069  -5.029 -65.949 
  8.274  -4.745 -74.653 
 -1.863  10.285 -74.811 
 -6.338  10.899 -69.277 
 17.121  11.443 -68.845 
-13.584   6.281 -64.788 
 -9.662   7.588 -63.455 
 17.119   7.453 -73.549 
-10.732  -8.750 -68.948 
  6.217 -10.040 -65.293 
 -7.867   5.768 -67.756 
 -0.893  -0.237 -76.468 
 10.252  12.492 -63.926 
 11.521   5.747 -65.902 
  0.000  -2.540 -62.700 
 -9.939  -9.659 -62.298 
 -8.455   9.896 -68.507 
 -5.378   8.785 -73.615 
 14.296  -4.019 -76.489 
 13.035 -12.243 -62.195 
 -6.122   3.173 -68.715 
-13.968   4.924 -71.448 
 -9.819   3.110 -72.001 
 -9.719  -9.348 -69.805 
 -1.831  -4.507 -68.376 
 -0.302  -0.464 -64.736 
 -2.487  -7.846 -69.814 
 -2.794   3.874 -73.226 
 -6.020   9.442 -63.847 
 -7.110  -7.407 -69.636 
 11.287   0.516 -66.159 
 12.588  -3.018 -62.304 
  2.761  -2.270 -66.328 
-15.134  -1.480 -74.977 
 -4.954   9.005 -62.358 
 -5.351  -4.112 -66.639 
  0.250   9.045 -73.384 
 -3.422  -0.032 -74.016 
 -1.180  -4.304 -66.442 
  8.357  -0.450 -60.959 
 10.669   9.004 -67.404 
 13.111 -12.065 -64.819 
 -4.109   7.268 -71.294 
  7.706  -2.184 -62.850 
  5.920   0.851 -66.147 
-10.980   7.761 -68.942 
  9.546   3.735 -70.540 
 11.724   5.080 -75.737 
 13.201 -12.925 -67.364 
 -7.125 -10.384 -67.834 
 15.368  11.543 -74.376 
 16.278   9.569 -74.197 
 -6.053  -0.190 -67.919 
  9.179 -11.506 -61.468 
 -9.203   3.412 -63.227 
-13.805   8.070 -74.734 
  0.356  -4.847 -64.382 

 VERTICES 526 1052 
1 0 
1 1 
1 2 
1 3 
1 4 
1 5 
1 6 
1 7 
1 8 
1 9 
1 10 
1 11 
1 12 
1 13 
1 14 
1 15 
1 16 
1 17 
1 18 
1 19 
1 20 
1 21 
1 22 
1 23 
1 24 
1 25 
1 26 
1 27 
1 28 
1 29 
1 30 
1 31 
1 32 
1 33 
1 34 
1 35 
1 36 
1 37 
1 38 
1 39 
1 40 
1 41 
1 42 
1 43 
1 44 
1 45 
1 46 
1 47 
1 48 
1 49 
1 50 
1 51 
1 52 
1 53 
1 54 
1 55 
1 56 
1 57 
1 58 
1 59 
1 60 
1 61 
1 62 
1 63 
1 64 
1 65 
1 66 
1 67 
1 68 
1 69 
1 70 
1 71 
1 72 
1 73 
1 74 
1 75 
1 76 
1 77 
1 78 
1 79 
1 80 
1 81 
1 82 
1 83 
1 84 
1 85 
1 86 
1 87 
1 88 
1 89 
1 90 
1 91 
1 92 
1 93 
1 94 
1 95 
1 96 
1 97 
1 98 
1 99 
1 100 
1 101 
1 102 
1 103 
1 104 
1 105 
1 106 
1 107 
1 108 
1 109 
1 110 
1 111 
1 112 
1 113 
1 114 
1 115 
1 116 
1 117 
1 118 
1 119 
1 120 
1 121 
1 122 
1 123 
1 124 
1 125 
1 126 
1 127 
1 128 
1 129 
1 130 
1 131 
1 132 
1 133 
1 134 
1 135 
1 136 
1 137 
1 138 
1 139 
1 140 
1 141 
1 142 
1 143 
1 144 
1 145 
1 146 
1 147 
1 148 
1 149 
1 150 
1 151 
1 152 
1 153 
1 154 
1 155 
1 156 
1 157 
1 158 
1 159 
1 160 
1 161 
1 162 
1 163 
1 164 
1 165 
1 166 
1 167 
1 168 
1 169 
1 170 
1 171 
1 172 
1 173 
1 174 
1 175 
1 176 
1 177 
1 178 
1 179 
1 180 
1 181 
1 182 
1 183 
1 184 
1 185 
1 186 
1 187 
1 188 
1 189 
1 190 
1 191 
1 192 
1 193 
1 194 
1 195 
1 196 
1 197 
1 198 
1 199 
1 200 
1 201 
1 202 
1 203 
1 204 
1 205 
1 206 
1 207 
1 208 
1 209 
1 210 
1 211 
1 212 
1 213 
1 214 
1 215 
1 216 
1 217 
1 218 
1 219 
1 220 
1 221 
1 222 
1 223 
1 224 
1 225 
1 226 
1 227 
1 228 
1 229 
1 230 
1 231 
1 232 
1 233 
1 234 
1 235 
1 236 
1 237 
1 238 
1 239 
1 240 
1 241 
1 242 
1 243 
1 244 
1 245 
1 246 
1 247 
1 248 
1 249 
1 250 
1 251 
1 252 
1 253 
1 254 
1 255 
1 256 
1 257 
1 258 
1 259 
1 260 
1 261 
1 262 
1 263 
1 264 
1 265 
1 266 
1 267 
1 268 
1 269 
1 270 
1 271 
1 272 
1 273 
1 274 
1 275 
1 276 
1 277 
1 278 
1 279 
1 280 
1 281 
1 282 
1 283 
1 284 
1 285 
1 286 
1 287 
1 288 
1 289 
1 290 
1 291 
1 292 
1 293 
1 294 
1 295 
1 296 
1 297 
1 298 
1 299 
1 300 
1 301 
1 302 
1 303 
1 304 
1 305 
1 306 
1 307 
1 308 
1 309 
1 310 
1 311 
1 312 
1 313 
1 314 
1 315 
1 316 
1 317 
1 318 
1 319 
1 320 
1 321 
1 322 
1 323 
1 324 
1 325 
1 326 
1 327 
1 328 
1 329 
1 330 
1 331 
1 332 
1 333 
1 334 
1 335 
1 336 
1 337 
1 338 
1 339 
1 340 
1 341 
1 342 
1 343 
1 344 
1 345 
1 346 
1 347 
1 348 
1 349 
1 350 
1 351 
1 352 
1 353 
1 354 
1 355 
1 356 
1 357 
1 358 
1 359 
1 360 
1 361 
1 362 
1 363 
1 364 
1 365 
1 366 
1 367 
1 368 
1 369 
1 370 
1 371 
1 372 
1 373 
1 374 
1 375 
1 376 
1 377 
1 378 
1 379 
1 380 
1 381 
1 382 
1 383 
1 384 
1 385 
1 386 
1 387 
1 388 
1 389 
1 390 
1 391 
1 392 
1 393 
1 394 
1 395 
1 396 
1 397 
1 398 
1 399 
1 400 
1 401 
1 402 
1 403 
1 404 
1 405 
1 406 
1 407 
1 408 
1 409 
1 410 
1 411 
1 412 
1 413 
1 414 
1 415 
1 416 
1 417 
1 418 
1 419 
1 420 
1 421 
1 422 
1 423 
1 424 
1 425 
1 426 
1 427 
1 428 
1 429 
1 430 
1 431 
1 432 
1 433 
1 434 
1 435 
1 436 
1 437 
1 438 
1 439 
1 440 
1 441 
1 442 
1 443 
1 444 
1 445 
1 446 
1 447 
1 448 
1 449 
1 450 
1 451 
1 452 
1 453 
1 454 
1 455 
1 456 
1 457 
1 458 
1 459 
1 460 
1 461 
1 462 
1 463 
1 464 
1 465 
1 466 
1 467 
1 468 
1 469 
1 470 
1 471 
1 472 
1 473 
1 474 
1 475 
1 476 
1 477 
1 478 
1 479 
1 480 
1 481 
1 482 
1 483 
1 484 
1 485 
1 486 
1 487 
1 488 
1 489 
1 490 
1 491 
1 492 
1 493 
1 494 
1 495 
1 496 
1 497 
1 498 
1 499 
1 500 
1 501 
1 502 
1 503 
1 504 
1 505 
1 506 
1 507 
1 508 
1 509 
1 510 
1 511 
1 512 
1 513 
1 514 
1 515 
1 516 
1 517 
1 518 
1 519 
1 520 
1 521 
1 522 
1 523 
1 524 
1 525 
POINT_DATA 526 
SCALARS MeanU double 1 
LOOKUP_TABLE default
0.16434 
0.12909 
0.10492 
0.15111 
0.12109 
0.17493 
0.11997 
0.07487 
0.06361 
0.18122 
0.17118 
0.14945 
0.09579 
0.10006 
0.09258 
0.19129 
0.18342 
0.15120 
0.08391 
0.11933 
0.15555 
0.15647 
0.08334 
0.05822 
0.13325 
0.05660 
0.16590 
0.21551 
0.16829 
0.17007 
0.11982 
0.20376 
0.10757 
0.09752 
0.05658 
0.09280 
0.11743 
0.12021 
0.16935 
0.11760 
0.03219 
0.11620 
0.04162 
0.04495 
0.13673 
0.14276 
0.04468 
0.08026 
0.08690 
0.09964 
0.15044 
0.17385 
0.16299 
0.09542 
0.19351 
0.09413 
0.09402 
0.15289 
0.13730 
0.06014 
0.21682 
0.05035 
0.17161 
0.12076 
0.16817 
0.05581 
0.12903 
0.09499 
0.09274 
0.11279 
0.09326 
0.08446 
0.03368 
0.11650 
0.18480 
0.22014 
0.12356 
0.21632 
0.11838 
0.07503 
0.13735 
0.18344 
0.13448 
0.10005 
0.04620 
0.15950 
0.12021 
0.13021 
0.13741 
0.13390 
0.06492 
0.12047 
0.09122 
0.19128 
0.14623 
0.05968 
0.14508 
0.13611 
0.12062 
0.14800 
0.12690 
0.09508 
0.15944 
0.03703 
0.08282 
0.14166 
0.12595 
0.13443 
0.05058 
0.06302 
0.14053 
0.13202 
0.13514 
0.13032 
0.13196 
0.15321 
0.19821 
0.20829 
0.10586 
0.06737 
0.15713 
0.15581 
0.09130 
0.07537 
0.16991 
0.09982 
0.03651 
0.14541 
0.14360 
0.08748 
0.14473 
0.18932 
0.07424 
0.06646 
0.12724 
0.13505 
0.08875 
0.13741 
0.10327 
0.22335 
0.12862 
0.10344 
0.12553 
0.11999 
0.12486 
0.14258 
0.21949 
0.11132 
0.17717 
0.14017 
0.04495 
0.17953 
0.09896 
0.16882 
0.13415 
0.18209 
0.13050 
0.11858 
0.06301 
0.09675 
0.06424 
0.15798 
0.21289 
0.10645 
0.06524 
0.14706 
0.10203 
0.08985 
0.09420 
0.14808 
0.10529 
0.09254 
0.13879 
0.14371 
0.14182 
0.18688 
0.16927 
0.19000 
0.08612 
0.17493 
0.10642 
0.15276 
0.14878 
0.14787 
0.12777 
0.14975 
0.14074 
0.11635 
0.13538 
0.11460 
0.19229 
0.05334 
0.19256 
0.17455 
0.09334 
0.12762 
0.21518 
0.13246 
0.18410 
0.18180 
0.11728 
0.18331 
0.15171 
0.16856 
0.12015 
0.11770 
0.14135 
0.12989 
0.10414 
0.14674 
0.19689 
0.18198 
0.16454 
0.12451 
0.08568 
0.08890 
0.07095 
0.01316 
0.07591 
0.09226 
0.12545 
0.16691 
0.15918 
0.09507 
0.03623 
0.18720 
0.14136 
0.12694 
0.08930 
0.15997 
0.14650 
0.06609 
0.11622 
0.18122 
0.13062 
0.14327 
0.09613 
0.15126 
0.13227 
0.15131 
0.16389 
0.22364 
0.12052 
0.11912 
0.19238 
0.07446 
0.10086 
0.14055 
0.08324 
0.13742 
0.11983 
0.08048 
0.06500 
0.10464 
0.18812 
0.05931 
0.15219 
0.07439 
0.21461 
0.07161 
0.08787 
0.08965 
0.09543 
0.15910 
0.14600 
0.05816 
0.11478 
0.15983 
0.09866 
0.05005 
0.11174 
0.09020 
0.04605 
0.06797 
0.12873 
0.13599 
0.14387 
0.19795 
0.06108 
0.05500 
0.15088 
0.09071 
0.12859 
0.04013 
0.07140 
0.14967 
0.10917 
0.13519 
0.09502 
0.17749 
0.11909 
0.13577 
0.08030 
0.01181 
0.10799 
0.06421 
0.03182 
0.08445 
0.06266 
0.12299 
0.07534 
0.06345 
0.08698 
0.14055 
0.05326 
0.10424 
0.07251 
0.14597 
0.15226 
0.13637 
0.07647 
0.06031 
0.06150 
0.04618 
0.07306 
0.05540 
0.08654 
0.08936 
0.18032 
0.14107 
0.07124 
0.17631 
0.18978 
0.08018 
0.11223 
0.05838 
0.02798 
0.19753 
0.07470 
0.10402 
0.11450 
0.05778 
0.22697 
0.07419 
0.13399 
0.07852 
0.10129 
0.03560 
0.17909 
0.14726 
0.15487 
0.10796 
0.06536 
0.13093 
0.16207 
0.11136 
0.09978 
0.14961 
0.12255 
0.18081 
0.15798 
0.08231 
0.24335 
0.11251 
0.14161 
0.08013 
0.16579 
0.23370 
0.09188 
0.11106 
0.20549 
0.09257 
0.08623 
0.12088 
0.14126 
0.14513 
0.20173 
0.19983 
0.19391 
0.18573 
0.12194 
0.10652 
0.10570 
0.14053 
0.18357 
0.14061 
0.07126 
0.12460 
0.04376 
0.14782 
0.14719 
0.08458 
0.17837 
0.18135 
0.21453 
0.08651 
0.13686 
0.22982 
0.14507 
0.12668 
0.10570 
0.11169 
0.13335 
0.19198 
0.08606 
0.09661 
0.11085 
0.12289 
0.17588 
0.16266 
0.14509 
0.18293 
0.09107 
0.11236 
0.19252 
0.16899 
0.24641 
0.11625 
0.10038 
0.14000 
0.11496 
0.06618 
0.23050 
0.13504 
0.18394 
0.15277 
0.16611 
0.13090 
0.14180 
0.06542 
0.17566 
0.07272 
0.05275 
0.06121 
0.12027 
0.08113 
0.14254 
0.04990 
0.06192 
0.11451 
0.15734 
0.09887 
0.10049 
0.10122 
0.12620 
0.18628 
0.05098 
0.16558 
0.13674 
0.16432 
0.06171 
0.24914 
0.10707 
0.07084 
0.12469 
0.14925 
0.09599 
0.15393 
0.14383 
0.22367 
0.11317 
0.06428 
0.21485 
0.10911 
0.11102 
0.13835 
0.11108 
0.09233 
0.19227 
0.06482 
0.14218 
0.05979 
0.21262 
0.12907 
0.19030 
0.09097 
0.12030 
0.10062 
0.09803 
0.08230 
0.08000 
0.16306 
0.06396 
0.07777 
0.12917 
0.11519 
0.19271 
0.17906 
0.11498 
0.15408 
0.05436 
0.13456 
0.10653 
0.15237 
0.15963 
0.08721 
0.04715 
0.13505 
0.17731 
0.14671 
0.07750 
0.05712 
0.19609 
0.13417 
0.20554 
0.15506 
0.13606 
0.12858 
0.11994 
0.13201 
0.14815 
0.17778 
0.15516 
0.14851 
0.10574 
0.05696 
0.08884 
0.19393 
0.21181 
0.07515 
0.10510 
0.07067 
0.23521 
0.13087 
0.07823 
0.12343 
0.08245 
0.06912 
0.12003 
0.17874 
0.19106 
0.14795 
0.16859 
0.16252 
0.07485 
0.20397 

 VECTORS Umean float 
0.06400 0.11450 0.09900 
0.02200 0.11800 0.04750 
0.03350 0.08250 0.05550 
0.06900 0.10950 -0.07800 
-0.06300 0.08350 -0.06100 
0.07000 0.13300 -0.08950 
0.02700 0.10850 0.04350 
0.06200 0.04050 -0.01100 
0.03950 0.02250 -0.04450 
-0.00800 0.15350 -0.09600 
0.05100 0.15950 -0.03550 
0.00700 0.14450 -0.03750 
-0.02300 0.09250 -0.00950 
0.01050 0.09950 0.00100 
0.00350 0.09250 0.00150 
-0.02250 0.18750 -0.03050 
0.00500 0.14400 -0.11350 
0.01850 0.15000 -0.00450 
0.05150 0.05800 0.03200 
-0.11300 0.02950 0.02450 
0.02500 0.11900 -0.09700 
0.07150 0.07050 -0.12000 
0.03750 0.07400 0.00800 
0.04650 0.03500 -0.00150 
0.11950 0.05800 0.01050 
-0.02100 0.02450 -0.04650 
0.01800 0.15700 -0.05050 
0.06050 0.18450 -0.09350 
0.02750 0.13100 -0.10200 
0.08300 0.11150 -0.09800 
-0.00750 0.04450 -0.11100 
0.07950 0.16800 0.08350 
-0.08150 0.01300 -0.06900 
0.01150 0.08750 -0.04150 
0.02300 0.05150 0.00450 
0.01650 0.01550 -0.09000 
-0.00250 0.05150 -0.10550 
-0.05750 0.10150 -0.02900 
0.07900 0.14600 -0.03350 
0.02550 0.09250 -0.06800 
-0.01850 0.02200 -0.01450 
0.08050 0.02150 -0.08100 
0.01150 0.03800 -0.01250 
0.04450 -0.00200 0.00600 
0.07850 0.11150 -0.01000 
0.03050 0.13550 0.03300 
0.03200 0.03000 -0.00850 
0.01550 0.07150 -0.03300 
0.04550 0.07100 0.02100 
-0.03000 0.09500 0.00200 
-0.01850 0.12700 -0.07850 
0.12000 0.12450 0.01800 
0.10050 -0.00900 -0.12800 
0.02000 0.07500 -0.05550 
0.02550 0.18450 0.05250 
0.03200 0.06600 0.05900 
0.04500 0.08250 -0.00300 
0.03950 0.11050 -0.09800 
0.03200 0.13350 0.00200 
-0.05650 0.02000 -0.00500 
0.12950 0.13900 0.10450 
0.00700 0.04800 0.01350 
0.07950 0.14700 -0.03900 
0.01450 0.05100 -0.10850 
0.10750 0.08200 -0.10000 
0.00200 0.05550 -0.00550 
0.04750 0.11100 -0.04550 
0.00650 0.06600 0.06800 
0.01450 0.04550 -0.07950 
0.08000 0.07900 0.00900 
0.02450 0.08700 -0.02300 
-0.01200 0.06700 0.05000 
0.02200 -0.00000 -0.02550 
0.01500 0.11550 -0.00250 
0.03100 0.14250 -0.11350 
0.12250 0.16350 -0.08200 
0.09450 0.07650 -0.02200 
0.12750 0.09450 -0.14700 
0.01350 0.09700 0.06650 
0.05550 0.05000 0.00700 
-0.00300 0.12750 -0.05100 
0.14750 0.10850 0.01100 
0.08400 0.10500 -0.00200 
0.01600 0.09500 0.02700 
0.00450 0.03350 -0.03150 
0.06550 0.10700 -0.09850 
0.03950 0.11300 0.01100 
0.00100 0.11450 -0.06200 
0.08000 0.11150 -0.00700 
0.09250 0.04900 -0.08350 
-0.03350 0.04650 -0.03050 
-0.05550 0.08850 -0.06000 
0.04800 0.05150 0.05800 
0.06700 0.17900 0.00750 
0.08200 0.10150 -0.06600 
0.03650 0.04700 -0.00450 
0.10250 0.10250 -0.00600 
-0.05850 0.07350 -0.09850 
0.00300 0.11900 -0.01950 
0.10400 0.08400 -0.06350 
0.08750 0.08150 0.04250 
-0.03550 0.07400 -0.04800 
0.01750 0.15500 0.03300 
0.02300 0.00550 0.02850 
0.03650 0.06100 0.04250 
0.11400 0.08350 -0.01000 
0.07650 0.10000 0.00350 
0.10250 0.06050 0.06250 
0.00950 0.04350 -0.02400 
-0.00300 0.05450 -0.03150 
0.01750 0.08100 -0.11350 
0.02450 0.09800 -0.08500 
0.00100 0.13400 -0.01750 
0.02400 0.11750 -0.05100 
0.10000 0.07650 -0.03950 
0.11100 0.02100 -0.10350 
-0.00100 0.19600 -0.02950 
0.06850 0.10150 -0.16850 
0.08500 0.06300 0.00350 
-0.00800 0.02250 -0.06300 
0.01250 0.10300 -0.11800 
-0.01350 0.15050 0.03800 
-0.02400 0.08300 -0.02950 
0.00800 0.06800 -0.03150 
0.07800 0.08750 -0.12300 
0.05450 0.05200 0.06550 
-0.02950 -0.00050 -0.02150 
0.01200 0.14300 -0.02350 
0.04300 0.11400 -0.07600 
-0.01250 0.08500 -0.01650 
-0.00000 0.11750 -0.08450 
0.11250 0.14500 -0.04650 
-0.00850 0.07300 -0.01050 
-0.02900 0.04400 -0.04050 
0.09500 0.08400 0.01050 
0.08100 0.10750 0.01100 
-0.00800 0.08050 -0.03650 
-0.02400 0.12000 0.06250 
0.00600 0.09150 -0.04750 
0.07500 0.15050 -0.14700 
0.00850 0.12000 -0.04550 
-0.02950 0.09800 0.01500 
-0.02900 0.11900 -0.02750 
-0.09400 0.04750 -0.05750 
-0.04950 0.08400 -0.07800 
0.05850 0.07600 -0.10550 
0.14150 0.04550 -0.16150 
-0.01600 0.10600 -0.03000 
0.07150 0.16000 0.02600 
-0.02700 0.05400 -0.12650 
0.01250 0.04200 0.01000 
0.05450 0.16950 0.02300 
0.05050 0.08150 -0.02450 
0.07250 0.13100 -0.07800 
0.03750 0.10250 -0.07800 
0.07600 0.11850 -0.11550 
0.00800 0.12600 -0.03300 
0.03800 0.09300 -0.06300 
0.05750 0.02450 -0.00800 
0.00800 0.08750 0.04050 
0.04150 0.03800 -0.03100 
0.08300 0.11900 -0.06250 
0.10950 0.13400 -0.12400 
0.08050 0.06050 -0.03450 
-0.00450 0.05550 -0.03400 
-0.01100 0.14300 -0.03250 
0.08650 0.04850 0.02400 
0.05250 0.06600 -0.03100 
-0.03350 0.08100 0.03450 
0.06050 0.11850 -0.06500 
0.00850 0.09200 -0.05050 
0.06500 0.06550 0.00700 
0.06550 0.11900 -0.02850 
0.03400 0.08600 -0.11000 
0.08800 0.09200 0.06250 
0.11900 0.06900 -0.12650 
0.12750 0.02900 -0.10750 
0.11900 0.14800 -0.00600 
0.01250 0.06100 -0.05950 
0.04550 0.14100 -0.09300 
-0.01800 0.09450 0.04550 
0.01950 0.14600 0.04050 
0.04300 0.11750 -0.08050 
0.06400 0.07950 -0.10700 
0.04800 0.07200 0.09400 
0.01150 0.14850 -0.01550 
0.01400 0.07050 -0.12100 
0.01850 0.11200 0.02550 
0.09300 0.09250 0.03350 
0.01150 0.11000 0.03000 
0.04200 0.11850 -0.14550 
-0.02450 0.03300 -0.03400 
0.13000 0.12500 0.06750 
0.06900 0.15750 0.03000 
0.02750 -0.00600 -0.08900 
0.09500 0.07700 -0.03650 
0.13300 0.11000 -0.12850 
0.03800 0.12450 0.02450 
0.05900 0.16900 -0.04300 
0.08600 0.14950 -0.05750 
0.00100 0.11700 0.00800 
0.06050 0.17050 -0.02950 
-0.00850 0.15100 0.01200 
0.07700 0.10350 -0.10850 
0.01300 0.11450 -0.03400 
0.04000 0.08000 -0.07650 
-0.02400 0.11150 -0.08350 
0.11550 0.04650 -0.03700 
0.03100 0.08650 0.04900 
-0.01450 0.14600 -0.00250 
0.11200 0.14050 -0.08050 
0.04300 0.12200 -0.12800 
0.09450 0.12250 -0.05600 
0.06400 0.05750 -0.09000 
-0.04350 0.05650 -0.04750 
-0.03250 0.02900 -0.07750 
0.01050 0.05800 -0.03950 
0.01300 -0.00050 0.00200 
0.02400 0.07200 -0.00150 
0.05400 0.07150 -0.02200 
-0.03150 0.10800 -0.05550 
0.11050 0.11950 -0.03700 
0.10750 0.03000 -0.11350 
0.01950 0.08700 -0.03300 
0.03250 0.01250 0.01000 
0.05650 0.17800 0.01300 
0.05150 0.13100 0.01300 
0.01600 0.12300 0.02700 
0.00850 0.08150 -0.03550 
0.11700 0.10350 -0.03450 
0.04500 0.10250 -0.09450 
-0.03300 -0.00550 -0.05700 
0.03700 0.10100 0.04400 
0.03650 0.17750 0.00150 
0.04950 0.07600 -0.09400 
0.02800 0.08350 -0.11300 
0.00400 0.07250 -0.06300 
0.02300 0.09050 -0.11900 
0.06950 0.10400 -0.04300 
0.05200 0.13900 -0.02950 
0.04700 0.12500 -0.09500 
0.14100 0.13550 -0.10850 
0.06350 0.09250 -0.04400 
0.11150 0.00600 -0.04150 
0.14050 0.13050 -0.01550 
0.04550 0.03200 -0.04950 
0.03300 0.09350 -0.01850 
0.03250 0.13150 0.03750 
-0.04400 0.03100 -0.06350 
0.07000 0.10100 0.06150 
0.03350 0.10050 -0.05600 
0.01950 0.06550 -0.04250 
-0.05150 0.03650 -0.01550 
0.08100 0.03200 0.05800 
-0.00050 0.13550 -0.13050 
-0.00250 0.02650 -0.05300 
0.11850 0.04150 -0.08600 
0.04950 0.00200 -0.05550 
0.09600 0.16100 -0.10450 
0.04350 0.05600 0.01000 
0.01150 0.05800 0.06500 
0.05450 0.06050 0.03750 
0.01500 0.03500 -0.08750 
-0.04150 0.14700 -0.04450 
-0.04600 0.13800 -0.01250 
-0.00550 -0.04650 -0.03450 
0.05450 0.10100 0.00150 
0.03600 0.14550 -0.05550 
0.04100 0.08950 0.00650 
-0.02850 0.01150 -0.03950 
0.04600 0.05900 -0.08300 
0.03450 0.08300 -0.00750 
-0.02950 0.02950 -0.01950 
0.04550 0.04950 0.01000 
0.04900 0.10450 0.05700 
-0.04000 0.11800 -0.05450 
0.04300 0.10100 -0.09300 
0.12100 0.05550 -0.14650 
0.01100 0.05700 0.01900 
0.04850 0.02450 0.00850 
0.04200 0.08050 -0.12050 
-0.01250 0.06150 -0.06550 
0.04650 0.11050 0.04650 
-0.00800 -0.00800 -0.03850 
0.01550 0.05100 -0.04750 
0.07750 0.06800 -0.10850 
0.03600 0.05900 -0.08450 
0.04400 0.07900 -0.10050 
0.02200 0.07900 0.04800 
0.08950 0.14400 -0.05250 
0.07900 0.06150 0.06450 
-0.01250 0.12500 0.05150 
0.02350 0.07550 0.01400 
0.01150 -0.00250 0.00100 
-0.02850 0.08550 -0.05950 
0.03500 0.05350 -0.00600 
-0.00000 0.02750 -0.01600 
-0.02650 0.04250 -0.06800 
0.04250 0.04600 -0.00200 
0.02050 0.01750 -0.12000 
-0.03950 0.01650 -0.06200 
0.00700 0.06100 -0.01600 
0.08550 -0.00850 -0.01350 
0.06700 0.12200 -0.01950 
-0.01600 0.05050 -0.00550 
0.02800 0.08400 -0.05500 
-0.02300 0.06850 -0.00600 
-0.03450 0.07400 -0.12100 
0.06400 0.12800 -0.05200 
0.09400 -0.01250 0.09800 
0.00400 0.07600 -0.00750 
-0.03650 -0.02800 -0.03900 
0.04700 -0.02200 -0.03300 
0.01400 0.04100 -0.01600 
0.04050 -0.04300 -0.04300 
0.01900 -0.00750 0.05150 
-0.02650 0.07800 0.02650 
0.04100 0.06400 -0.04700 
0.08100 0.09650 -0.12900 
0.06550 0.10700 -0.06450 