# vtk DataFile Version 2.0 
Xm, Ym, Zm, Uvecs, timestep 10161 
ASCII 
 
DATASET POLYDATA POINTS 464 float 
 -5.113  -1.338 -70.868 
 -7.219  -4.019 -74.228 
  1.176   6.505 -72.249 
  6.967   2.269 -72.984 
 -3.471  -5.575 -75.220 
 14.797   3.082 -71.709 
  5.465   4.060 -69.553 
  2.053   4.690 -71.447 
 -0.562   6.037 -71.287 
  4.555 -11.527 -73.268 
 -7.580   1.297 -69.844 
  3.023   0.733 -68.493 
 -5.747  -3.438 -70.776 
 -0.088   8.949 -72.791 
 -1.014   4.152 -68.705 
  2.321   6.449 -75.291 
  4.149   8.712 -69.938 
 -9.076   6.147 -70.748 
  5.094   3.023 -67.653 
 -1.123  -1.609 -71.814 
  1.416  -4.661 -70.565 
 -8.893   3.798 -65.898 
  1.732  11.765 -71.648 
 -0.088  -4.140 -69.703 
 -0.887  -3.635 -71.380 
  5.328  -2.470 -68.038 
 -3.337   0.705 -69.394 
 -7.099   2.675 -73.941 
  0.908   5.998 -66.533 
  4.551   6.455 -73.279 
 -1.604 -10.265 -70.123 
 -7.969   2.841 -65.939 
 -0.230   2.309 -67.081 
 -5.297  -2.199 -71.335 
 -3.838 -11.736 -70.436 
 -1.481  -8.081 -72.403 
  9.972   9.310 -68.091 
  6.675   7.407 -71.947 
 -2.510   3.401 -69.345 
 13.897   5.716 -71.817 
 -2.160   1.690 -67.708 
-10.890   0.995 -70.067 
 -6.841   9.348 -73.099 
  9.680  -3.013 -70.670 
 -3.730  -3.550 -70.012 
 -2.314   4.880 -67.397 
  1.698   5.303 -67.543 
 13.088  -1.185 -70.006 
  2.555  -4.442 -76.781 
  8.483   5.222 -75.336 
 -4.739   5.189 -75.084 
-13.572   9.556 -70.148 
 -2.234  -2.408 -71.340 
-12.847   1.951 -69.239 
 -9.821   6.745 -77.075 
  1.902   3.502 -66.017 
  5.072  -9.917 -70.529 
 15.110   5.053 -68.732 
  6.149   4.515 -71.328 
-11.394   7.300 -62.752 
  0.147  10.563 -71.078 
 -1.621 -11.019 -70.704 
  3.160  -1.700 -68.785 
  3.725   5.513 -67.559 
 -2.982  -9.274 -66.987 
  6.960   4.354 -75.388 
  6.004  12.135 -69.183 
  4.999  -0.742 -67.286 
  7.271   1.824 -71.703 
 -8.917  -7.896 -74.222 
  4.684  -7.927 -76.286 
-12.479  -2.516 -66.857 
 11.273   1.841 -69.838 
 13.958   9.186 -73.621 
  1.502  -5.045 -70.175 
 -4.672  -6.603 -73.213 
  1.484   6.201 -66.582 
  6.535  -5.135 -70.935 
 -1.785 -11.962 -69.322 
  7.739  -6.792 -73.465 
 -4.971   7.923 -68.119 
 -2.740   5.518 -63.191 
  7.119 -11.494 -71.895 
 15.745  -4.281 -69.953 
 -0.075   1.968 -77.489 
 -3.091  -4.305 -70.844 
  0.294  -2.063 -64.632 
 16.907   5.016 -70.391 
 -8.933  10.601 -68.098 
  5.207   1.101 -71.927 
  9.008   0.100 -65.108 
 -3.672  -8.671 -68.822 
-13.837   6.595 -66.050 
 -3.802  -6.761 -68.765 
  3.988   8.314 -66.873 
 -5.551  -7.781 -68.023 
  3.495   6.675 -66.726 
 12.317  -1.805 -69.596 
 -4.139   0.722 -62.739 
  3.229  -5.960 -67.615 
 13.589   9.941 -69.954 
 10.429 -12.740 -71.422 
 -5.472   9.436 -64.240 
 -6.085 -11.519 -68.767 
  4.879   1.675 -72.534 
  1.896 -12.779 -67.166 
 -1.536   8.595 -68.016 
  2.319   3.173 -63.567 
 10.695   2.825 -65.948 
 14.218   6.091 -67.126 
  6.043  -4.564 -64.555 
  8.213  -4.109 -68.526 
-14.080  -0.283 -72.255 
 -8.201 -10.945 -68.448 
 15.472   7.278 -65.870 
  1.770  -3.317 -67.695 
 -8.923   8.740 -66.160 
 10.171   9.659 -68.517 
  4.646   0.927 -71.944 
 -9.864   5.739 -62.082 
 -2.965   4.361 -66.271 
 -5.502  -2.430 -69.756 
 15.459   7.873 -76.997 
 -2.792  -7.500 -63.580 
 -0.556   7.067 -68.329 
-11.309  12.702 -66.726 
  1.312   1.046 -63.365 
  5.357   6.207 -71.699 
 -8.334  -2.299 -74.142 
  3.835  -8.133 -67.945 
  5.622  -2.022 -68.282 
  1.803  10.309 -66.867 
  3.153  -9.392 -63.319 
  0.993  -6.432 -65.876 
  0.161   2.941 -61.904 
-12.611   2.450 -70.787 
  4.189  11.235 -67.108 
  4.345   6.563 -71.581 
 -2.923 -11.389 -69.780 
 -6.254  -4.305 -75.501 
 -7.130  12.145 -64.261 
  8.785   2.603 -68.797 
-10.620   9.090 -67.296 
 -9.067  11.323 -61.988 
 -5.812 -10.395 -67.248 
  3.802   7.973 -73.725 
  4.560  -7.665 -69.028 
 -4.011 -10.881 -67.184 
  1.093   5.666 -63.531 
 13.705   4.235 -68.630 
  0.074   4.660 -63.644 
  6.938  -6.526 -72.981 
  4.598  -9.617 -63.075 
 -6.995   7.458 -73.510 
  5.540   4.082 -65.975 
 -4.769   0.212 -68.826 
 -6.527   3.261 -74.340 
-13.372  10.846 -71.150 
 -7.577  10.979 -73.826 
  4.620  -4.920 -66.669 
 14.002  -2.836 -70.847 
  6.557  -1.071 -66.204 
  9.163  -6.162 -66.698 
  6.694   8.834 -62.731 
  9.224 -11.976 -71.852 
 12.551   2.835 -67.759 
 -4.337 -11.646 -67.879 
-14.579   8.162 -72.072 
  1.763  -5.322 -64.665 
 10.020 -11.254 -71.777 
-12.048  11.956 -66.755 
  1.446  -1.752 -75.327 
  1.336   5.587 -67.571 
 -2.615   4.163 -72.417 
 -4.185  -7.726 -63.974 
-13.102   8.025 -66.556 
 -3.290  -3.329 -66.192 
 -2.919  11.420 -73.234 
  5.958   6.188 -62.712 
 15.004   9.200 -72.067 
 -4.927   0.984 -67.598 
-11.721  -6.436 -71.977 
  1.398  -6.689 -68.162 
 11.744  -0.958 -71.335 
-13.837  -4.641 -71.853 
 -8.677  10.553 -72.967 
  1.888 -11.188 -71.304 
 -2.444   1.494 -59.576 
  6.894   2.779 -68.089 
 -5.633  12.432 -69.208 
-10.035  -6.551 -63.691 
  6.873   5.147 -62.547 
 -9.576   7.879 -63.722 
 -9.144   9.475 -73.336 
-15.698   1.869 -74.578 
 12.131   6.922 -69.686 
 -8.349  -7.472 -70.345 
  6.819  -2.918 -66.715 
  8.691  -1.128 -71.853 
 -0.550  11.425 -71.632 
-13.360   1.479 -69.407 
 13.296   6.022 -68.033 
  7.370   9.732 -69.558 
  5.690 -11.814 -71.895 
 -4.876  -3.212 -68.296 
 -9.721  10.858 -71.820 
-14.077  -8.385 -74.900 
  0.822 -11.381 -64.035 
-10.790   0.639 -61.700 
 -8.735  -2.305 -69.741 
 16.931   0.704 -67.435 
  1.069   4.726 -73.793 
 14.084  -7.985 -69.154 
  6.170  -8.578 -70.114 
  7.636  -1.368 -62.262 
 11.718  -5.132 -71.660 
  7.502 -11.845 -64.778 
 11.680   9.030 -69.439 
 14.088   2.934 -64.636 
  0.894   7.812 -75.568 
  5.090   5.100 -65.691 
-10.279  -8.079 -74.133 
  2.123  -2.975 -61.312 
 -6.076  10.979 -60.797 
 -0.542   2.325 -70.929 
-12.196   6.816 -67.553 
-12.125   7.890 -69.987 
 -2.507   4.928 -65.391 
-12.333  11.193 -65.192 
  4.930  -9.543 -74.120 
  3.492   0.662 -64.305 
  9.273   9.602 -70.257 
  3.205  -1.351 -65.329 
 -7.164  -0.762 -70.228 
  2.454 -10.544 -76.447 
 17.255  -6.247 -69.700 
 -8.521 -12.012 -75.097 
-14.989   5.825 -71.029 
-12.608   4.487 -71.428 
-10.247  11.368 -64.718 
  9.524   4.393 -72.584 
 -9.932  10.812 -69.471 
 -4.977  12.602 -69.782 
  1.436  -2.013 -73.540 
  6.904 -12.858 -69.756 
 -4.467  10.763 -72.555 
  5.119   9.441 -66.120 
  7.383   1.061 -72.074 
 11.576  -7.220 -70.521 
  9.188  -1.162 -64.673 
 -5.308 -10.877 -68.855 
  5.393  10.909 -65.919 
 -8.896  -0.305 -76.442 
  7.116   7.369 -65.242 
 11.616  -0.453 -68.217 
 16.299   2.201 -65.937 
  3.677   4.192 -66.270 
  4.458  10.445 -65.674 
 -6.443   5.061 -77.389 
 13.352  -1.799 -70.793 
 14.092   6.406 -66.992 
 -6.963  -4.548 -72.214 
 -2.388  -3.656 -71.528 
 -3.891   9.671 -68.140 
  4.485   4.542 -61.726 
 11.528  -0.116 -74.194 
  1.649   7.676 -69.005 
-13.044  11.922 -74.236 
 -5.047   2.590 -66.987 
 12.349  -9.813 -70.397 
  0.377   4.140 -66.325 
 12.326  -6.053 -72.464 
  1.642  -7.879 -70.933 
 11.677  -2.909 -70.171 
 -2.426   1.917 -63.966 
-10.590  -4.938 -70.820 
 15.361  10.539 -64.191 
 -1.094  10.753 -71.926 
 -1.426   7.927 -69.474 
 -2.633   6.443 -63.554 
  9.771   3.019 -71.124 
  2.142   4.107 -69.547 
-12.983  -1.010 -76.327 
  8.744   7.236 -70.086 
 -7.675 -10.940 -69.053 
  5.614  -0.837 -67.752 
 -5.101  -0.112 -65.592 
-11.467   3.276 -75.540 
  2.085   7.668 -67.617 
 11.636  -7.322 -64.423 
  2.101  -7.680 -61.825 
 -7.979  13.523 -62.856 
  5.500  -4.664 -73.118 
  1.783  -5.202 -71.838 
  6.787  -1.968 -77.064 
 -7.159  -7.944 -63.403 
 -8.090  -5.651 -73.564 
-12.057   9.493 -63.799 
 -6.852  -3.997 -66.555 
  2.939  -8.797 -74.660 
-11.967  -0.609 -72.633 
 -7.349 -12.869 -65.480 
 -8.474   1.417 -66.100 
-12.189 -10.269 -73.609 
  8.497   7.623 -75.398 
  7.055   1.728 -66.231 
-10.919  -9.052 -63.924 
 -5.512   0.819 -76.340 
 -5.297  -7.261 -59.787 
 -2.592  -2.812 -65.284 
-10.741  -5.316 -63.471 
 -3.390 -10.511 -60.592 
 15.016   6.404 -67.962 
 -8.790   5.805 -66.734 
  8.598  10.130 -73.614 
 11.096  -5.766 -71.824 
-11.328   8.446 -71.588 
 -2.248   9.328 -73.054 
 -8.080   9.177 -70.519 
 16.633 -10.028 -68.645 
 -2.957  -8.342 -61.400 
 18.280  -7.653 -68.740 
  1.445  11.108 -61.988 
 -8.488  -3.422 -74.613 
  1.319   0.627 -66.008 
 18.303  -9.485 -69.849 
 -0.813 -11.310 -65.397 
-12.750  11.120 -75.424 
 -0.614   0.550 -60.681 
 -2.811   5.303 -57.697 
 -3.857  -6.122 -65.099 
 -8.721  10.941 -66.344 
  8.117  11.991 -62.918 
  3.072  11.775 -60.366 
 -0.463  -4.221 -61.395 
 -7.821 -10.298 -64.572 
 16.905   4.191 -69.079 
 -9.873 -10.259 -72.389 
-11.270 -10.389 -65.656 
 -0.442   6.563 -60.055 
 14.224 -12.656 -70.404 
 -5.933  -3.027 -59.286 
  9.384  -8.096 -65.574 
 13.426  -4.162 -64.882 
 17.745   0.161 -68.392 
  7.854 -11.558 -60.362 
  1.976  -6.607 -67.926 
 16.081  -0.511 -67.674 
  6.082  12.305 -64.233 
 10.361 -12.980 -67.959 
 -1.528  -6.008 -66.406 
  1.620  11.657 -75.505 
  6.881  -2.655 -59.368 
  5.479   2.872 -68.280 
-12.058   6.101 -69.518 
-11.418   6.456 -69.292 
  8.632  -1.539 -64.756 
 -5.911   6.825 -71.320 
 -5.614  11.463 -65.144 
  3.787  -7.768 -62.575 
 14.403   0.107 -64.350 
  9.777   7.347 -63.561 
 -9.991  -0.411 -73.901 
 10.607  -5.799 -65.256 
 -6.483   7.545 -75.401 
 16.538  -4.462 -71.751 
 -0.064  -2.806 -71.975 
 16.990   7.371 -67.696 
  3.779  -6.997 -75.358 
  3.808  -5.191 -62.657 
  5.383   2.841 -75.999 
  1.276   0.117 -59.446 
  3.705  -3.869 -60.442 
-13.030   3.904 -78.013 
-11.827 -11.850 -72.616 
 15.294   6.164 -68.412 
  8.797  -4.097 -66.776 
 15.578  -7.287 -67.472 
  7.721  -7.791 -75.429 
-13.913  -1.970 -67.888 
-11.144   2.184 -66.500 
 12.165  -9.915 -58.845 
 -9.181   3.505 -71.186 
 -1.045  -2.822 -61.607 
 -5.156  -2.446 -74.896 
  4.534   6.681 -64.495 
  4.716 -12.059 -75.482 
-11.394  -9.835 -64.528 
 -9.163  -9.527 -61.638 
  3.660   8.630 -75.440 
  4.060   0.708 -59.868 
 13.971  11.547 -66.985 
  3.924   0.583 -71.524 
  7.257 -10.742 -69.730 
-12.293   0.026 -65.514 
 15.190  -6.780 -74.816 
  0.547   5.825 -66.573 
  2.696  -1.073 -71.082 
 -6.758  -3.738 -58.479 
  8.005   4.472 -73.244 
 13.834 -12.989 -68.749 
  3.174 -11.311 -76.352 
-11.558 -12.035 -70.443 
-12.775   0.569 -75.370 
-13.125  -6.463 -63.242 
  3.795   5.772 -68.942 
 12.223  12.581 -72.641 
 14.147  -5.285 -69.981 
  1.050  -0.916 -75.645 
 10.525   6.511 -66.137 
  6.461  -9.761 -73.201 
 11.904  -0.891 -59.427 
 16.336  -8.899 -64.515 
 -9.017   3.329 -71.651 
  8.078  11.831 -70.130 
 11.410   3.595 -68.816 
 12.399 -12.046 -71.837 
-12.705  -0.602 -65.047 
 -9.930   9.795 -75.591 
 -0.908  11.527 -72.849 
 -0.534   9.442 -70.097 
 15.901  -4.404 -71.833 
  1.593   7.611 -73.338 
 13.080  -2.889 -70.494 
 11.453   3.339 -59.071 
 12.566   4.008 -61.415 
-10.542   9.836 -75.650 
 14.393 -12.500 -68.131 
 15.188  12.062 -73.016 
  3.488   0.588 -70.839 
 12.456   3.531 -68.025 
  1.746   6.276 -64.316 
-13.710   0.840 -70.877 
 -9.659   1.337 -76.541 
-12.397   6.564 -61.963 
 10.357  10.506 -59.592 
 -5.694 -12.341 -71.501 
 -5.132   5.992 -65.460 
  0.925  -0.039 -71.099 
  3.323  10.637 -71.838 
 -0.382  -7.046 -70.989 
  6.464   0.077 -70.007 
 -9.625   4.289 -68.542 
  2.878   1.904 -77.247 
 -5.567  -7.821 -74.529 
 13.773   2.685 -68.530 
-13.647   1.065 -77.337 
  8.566   0.740 -64.819 
  5.194  -4.110 -68.234 
  7.925   2.749 -66.562 
  0.434   5.587 -66.686 
-10.060   2.752 -63.309 
  7.924  -3.147 -76.816 
  8.838  -4.382 -66.790 
  8.947 -10.387 -65.548 
-12.519  11.290 -72.570 
  7.415   0.950 -60.102 
 -2.942 -10.267 -66.321 
 -5.681 -11.913 -67.368 
 -4.593 -10.215 -66.209 
  5.544  -7.546 -73.429 
 -7.799   7.686 -66.535 
 -6.996   5.784 -76.094 
  0.811   6.184 -68.320 

 VERTICES 464 928 
1 0 
1 1 
1 2 
1 3 
1 4 
1 5 
1 6 
1 7 
1 8 
1 9 
1 10 
1 11 
1 12 
1 13 
1 14 
1 15 
1 16 
1 17 
1 18 
1 19 
1 20 
1 21 
1 22 
1 23 
1 24 
1 25 
1 26 
1 27 
1 28 
1 29 
1 30 
1 31 
1 32 
1 33 
1 34 
1 35 
1 36 
1 37 
1 38 
1 39 
1 40 
1 41 
1 42 
1 43 
1 44 
1 45 
1 46 
1 47 
1 48 
1 49 
1 50 
1 51 
1 52 
1 53 
1 54 
1 55 
1 56 
1 57 
1 58 
1 59 
1 60 
1 61 
1 62 
1 63 
1 64 
1 65 
1 66 
1 67 
1 68 
1 69 
1 70 
1 71 
1 72 
1 73 
1 74 
1 75 
1 76 
1 77 
1 78 
1 79 
1 80 
1 81 
1 82 
1 83 
1 84 
1 85 
1 86 
1 87 
1 88 
1 89 
1 90 
1 91 
1 92 
1 93 
1 94 
1 95 
1 96 
1 97 
1 98 
1 99 
1 100 
1 101 
1 102 
1 103 
1 104 
1 105 
1 106 
1 107 
1 108 
1 109 
1 110 
1 111 
1 112 
1 113 
1 114 
1 115 
1 116 
1 117 
1 118 
1 119 
1 120 
1 121 
1 122 
1 123 
1 124 
1 125 
1 126 
1 127 
1 128 
1 129 
1 130 
1 131 
1 132 
1 133 
1 134 
1 135 
1 136 
1 137 
1 138 
1 139 
1 140 
1 141 
1 142 
1 143 
1 144 
1 145 
1 146 
1 147 
1 148 
1 149 
1 150 
1 151 
1 152 
1 153 
1 154 
1 155 
1 156 
1 157 
1 158 
1 159 
1 160 
1 161 
1 162 
1 163 
1 164 
1 165 
1 166 
1 167 
1 168 
1 169 
1 170 
1 171 
1 172 
1 173 
1 174 
1 175 
1 176 
1 177 
1 178 
1 179 
1 180 
1 181 
1 182 
1 183 
1 184 
1 185 
1 186 
1 187 
1 188 
1 189 
1 190 
1 191 
1 192 
1 193 
1 194 
1 195 
1 196 
1 197 
1 198 
1 199 
1 200 
1 201 
1 202 
1 203 
1 204 
1 205 
1 206 
1 207 
1 208 
1 209 
1 210 
1 211 
1 212 
1 213 
1 214 
1 215 
1 216 
1 217 
1 218 
1 219 
1 220 
1 221 
1 222 
1 223 
1 224 
1 225 
1 226 
1 227 
1 228 
1 229 
1 230 
1 231 
1 232 
1 233 
1 234 
1 235 
1 236 
1 237 
1 238 
1 239 
1 240 
1 241 
1 242 
1 243 
1 244 
1 245 
1 246 
1 247 
1 248 
1 249 
1 250 
1 251 
1 252 
1 253 
1 254 
1 255 
1 256 
1 257 
1 258 
1 259 
1 260 
1 261 
1 262 
1 263 
1 264 
1 265 
1 266 
1 267 
1 268 
1 269 
1 270 
1 271 
1 272 
1 273 
1 274 
1 275 
1 276 
1 277 
1 278 
1 279 
1 280 
1 281 
1 282 
1 283 
1 284 
1 285 
1 286 
1 287 
1 288 
1 289 
1 290 
1 291 
1 292 
1 293 
1 294 
1 295 
1 296 
1 297 
1 298 
1 299 
1 300 
1 301 
1 302 
1 303 
1 304 
1 305 
1 306 
1 307 
1 308 
1 309 
1 310 
1 311 
1 312 
1 313 
1 314 
1 315 
1 316 
1 317 
1 318 
1 319 
1 320 
1 321 
1 322 
1 323 
1 324 
1 325 
1 326 
1 327 
1 328 
1 329 
1 330 
1 331 
1 332 
1 333 
1 334 
1 335 
1 336 
1 337 
1 338 
1 339 
1 340 
1 341 
1 342 
1 343 
1 344 
1 345 
1 346 
1 347 
1 348 
1 349 
1 350 
1 351 
1 352 
1 353 
1 354 
1 355 
1 356 
1 357 
1 358 
1 359 
1 360 
1 361 
1 362 
1 363 
1 364 
1 365 
1 366 
1 367 
1 368 
1 369 
1 370 
1 371 
1 372 
1 373 
1 374 
1 375 
1 376 
1 377 
1 378 
1 379 
1 380 
1 381 
1 382 
1 383 
1 384 
1 385 
1 386 
1 387 
1 388 
1 389 
1 390 
1 391 
1 392 
1 393 
1 394 
1 395 
1 396 
1 397 
1 398 
1 399 
1 400 
1 401 
1 402 
1 403 
1 404 
1 405 
1 406 
1 407 
1 408 
1 409 
1 410 
1 411 
1 412 
1 413 
1 414 
1 415 
1 416 
1 417 
1 418 
1 419 
1 420 
1 421 
1 422 
1 423 
1 424 
1 425 
1 426 
1 427 
1 428 
1 429 
1 430 
1 431 
1 432 
1 433 
1 434 
1 435 
1 436 
1 437 
1 438 
1 439 
1 440 
1 441 
1 442 
1 443 
1 444 
1 445 
1 446 
1 447 
1 448 
1 449 
1 450 
1 451 
1 452 
1 453 
1 454 
1 455 
1 456 
1 457 
1 458 
1 459 
1 460 
1 461 
1 462 
1 463 
POINT_DATA 464 
SCALARS MeanU double 1 
LOOKUP_TABLE default
0.26897 
0.11475 
0.12932 
0.27718 
0.16748 
0.13937 
0.24018 
0.17597 
0.17886 
0.12051 
0.17090 
0.23639 
0.18637 
0.05322 
0.16043 
0.16890 
0.00384 
0.15711 
0.21746 
0.18077 
0.27326 
0.20018 
0.14247 
0.25566 
0.23164 
0.14797 
0.24701 
0.16813 
0.12079 
0.10945 
0.18736 
0.20529 
0.10133 
0.25643 
0.14857 
0.14119 
0.04272 
0.13321 
0.18897 
0.17206 
0.16373 
0.18416 
0.20057 
0.24531 
0.21347 
0.21330 
0.13750 
0.16735 
0.14145 
0.17517 
0.21483 
0.16625 
0.16633 
0.16961 
0.12502 
0.13246 
0.09830 
0.13760 
0.23137 
0.23548 
0.11696 
0.07287 
0.25596 
0.12954 
0.17028 
0.19118 
0.11986 
0.08156 
0.33286 
0.11327 
0.10259 
0.24721 
0.16964 
0.19345 
0.24487 
0.21909 
0.11038 
0.26923 
0.11308 
0.16641 
0.10695 
0.08535 
0.11158 
0.14532 
0.19216 
0.18999 
0.31833 
0.16293 
0.11106 
0.26313 
0.25202 
0.07233 
0.10462 
0.18138 
0.11406 
0.13660 
0.09573 
0.21551 
0.26323 
0.20587 
0.16201 
0.16038 
0.08119 
0.10741 
0.18051 
0.12933 
0.08444 
0.12849 
0.10231 
0.12520 
0.37620 
0.23812 
0.21694 
0.18340 
0.15416 
0.26635 
0.07239 
0.05838 
0.23979 
0.12977 
0.16236 
0.20306 
0.19739 
0.19998 
0.19740 
0.09940 
0.15601 
0.13833 
0.10896 
0.17010 
0.17114 
0.10011 
0.09188 
0.23657 
0.10759 
0.20500 
0.05845 
0.16666 
0.10390 
0.13148 
0.11064 
0.15516 
0.10214 
0.14098 
0.18882 
0.06807 
0.15671 
0.11867 
0.14606 
0.10985 
0.15837 
0.19281 
0.07691 
0.23597 
0.17458 
0.19909 
0.17292 
0.24056 
0.18867 
0.27475 
0.12088 
0.18595 
0.26563 
0.09054 
0.09437 
0.05319 
0.05517 
0.24838 
0.17719 
0.07453 
0.14225 
0.14488 
0.13702 
0.20243 
0.21858 
0.14577 
0.30347 
0.13334 
0.09131 
0.21365 
0.20539 
0.06927 
0.17926 
0.15544 
0.20154 
0.18091 
0.12304 
0.06393 
0.21579 
0.11629 
0.13641 
0.09513 
0.08212 
0.19688 
0.21452 
0.09599 
0.23294 
0.27374 
0.30840 
0.11048 
0.12062 
0.09413 
0.08222 
0.10790 
0.22722 
0.10087 
0.10971 
0.12198 
0.14778 
0.11650 
0.10474 
0.18922 
0.10278 
0.13843 
0.21200 
0.27652 
0.12535 
0.09562 
0.10565 
0.10245 
0.17793 
0.15339 
0.26907 
0.17502 
0.16307 
0.19247 
0.18728 
0.18634 
0.08640 
0.12396 
0.12279 
0.09495 
0.15934 
0.17264 
0.18935 
0.08271 
0.02818 
0.18919 
0.14927 
0.08187 
0.25347 
0.06801 
0.10816 
0.16702 
0.10540 
0.12371 
0.04707 
0.29540 
0.09136 
0.28468 
0.08851 
0.04045 
0.17840 
0.12834 
0.22312 
0.14931 
0.18277 
0.04799 
0.15271 
0.14595 
0.14106 
0.13512 
0.14423 
0.07292 
0.13339 
0.25118 
0.06647 
0.19965 
0.15695 
0.08724 
0.18983 
0.17538 
0.12448 
0.26417 
0.22323 
0.03466 
0.08106 
0.08598 
0.14512 
0.14519 
0.18708 
0.19274 
0.13044 
0.10163 
0.16881 
0.11038 
0.17372 
0.06897 
0.07529 
0.12266 
0.23687 
0.13296 
0.18921 
0.20042 
0.19468 
0.25165 
0.08819 
0.07184 
0.22136 
0.10644 
0.15633 
0.21758 
0.19331 
0.12915 
0.14556 
0.11592 
0.08562 
0.13281 
0.27150 
0.37846 
0.11319 
0.07757 
0.12257 
0.12974 
0.15481 
0.20761 
0.15782 
0.13879 
0.09523 
0.07698 
0.22490 
0.11368 
0.11435 
0.12209 
0.20383 
0.06840 
0.22685 
0.20651 
0.08143 
0.11635 
0.32438 
0.09407 
0.06768 
0.15635 
0.20661 
0.08167 
0.15686 
0.13331 
0.17709 
0.14536 
0.09695 
0.17448 
0.20051 
0.21393 
0.15858 
0.03822 
0.12246 
0.13588 
0.06855 
0.10066 
0.30275 
0.22416 
0.16339 
0.24033 
0.13764 
0.11443 
0.30053 
0.25129 
0.12476 
0.11162 
0.03360 
0.05695 
0.12379 
0.23026 
0.21247 
0.08171 
0.19873 
0.25668 
0.10491 
0.17276 
0.19866 
0.08659 
0.20949 
0.16395 
0.18061 
0.14339 
0.23052 
0.07187 
0.10268 
0.18380 
0.18486 
0.22069 
0.17361 
0.22286 
0.15853 
0.20480 
0.11057 
0.13440 
0.19288 
0.14767 
0.11829 
0.13040 
0.16487 
0.07504 
0.15870 
0.13565 
0.21742 
0.24293 
0.14627 
0.22971 
0.08535 
0.10362 
0.21309 
0.18572 
0.07616 
0.21380 
0.18063 
0.08558 
0.07553 
0.18255 
0.11381 
0.27203 
0.05239 
0.20136 
0.16445 
0.12921 
0.11937 
0.12790 
0.20627 
0.12205 
0.11718 
0.15126 
0.17989 
0.15822 
0.12872 
0.06996 
0.20097 
0.05781 
0.11773 
0.14543 
0.05596 
0.17687 
0.13870 
0.12067 
0.25053 
0.08915 
0.07433 
0.16044 
0.18836 
0.08428 
0.17587 
0.22378 
0.11319 
0.15821 
0.12420 
0.12582 
0.21975 
0.24575 
0.25567 
0.08321 
0.16993 
0.20461 
0.28476 
0.24107 
0.18448 
0.20841 
0.12303 
0.16797 
0.15842 
0.20610 
0.13746 
0.08452 
0.15328 
0.11124 

 VECTORS Umean float 
-0.01600 0.13600 -0.23150 
-0.02950 0.01750 -0.10950 
0.00250 0.02150 -0.12750 
0.05500 0.10150 -0.25200 
0.06850 0.04000 -0.14750 
0.01750 0.13250 -0.03950 
0.08350 0.10350 -0.20000 
0.07300 0.05600 -0.15000 
0.06400 0.08200 -0.14550 
0.09000 0.07900 -0.01350 
0.04700 0.12250 -0.10950 
0.14250 0.18200 -0.04950 
0.07200 0.12500 -0.11800 
0.00750 0.05200 0.00850 
0.04200 0.04550 -0.14800 
0.02250 0.08450 -0.14450 
-0.00150 -0.00250 -0.00250 
0.02950 0.10400 -0.11400 
-0.00250 0.08650 -0.19950 
0.00350 0.17900 -0.02500 
0.10650 0.10650 -0.22800 
0.17350 0.09750 -0.02150 
-0.13100 -0.05600 -0.00050 
0.09800 0.10700 -0.21050 
0.03150 0.12100 -0.19500 
0.07300 0.03450 -0.12400 
0.06550 0.16100 -0.17550 
0.11850 0.11850 -0.01350 
0.03850 0.05750 -0.09900 
0.02700 0.01500 -0.10500 
0.07900 0.05850 -0.15950 
0.14100 0.13850 -0.05550 
0.02550 0.09650 0.01750 
0.03150 0.11100 -0.22900 
0.09800 0.05950 -0.09450 
0.04100 0.03850 -0.12950 
-0.01200 -0.02500 -0.03250 
0.09000 0.08650 -0.04650 
0.02050 0.10900 -0.15300 
0.02700 0.13400 -0.10450 
0.06150 0.09900 -0.11500 
0.12650 0.11700 -0.06500 
-0.00650 0.14150 -0.14200 
0.14650 0.06700 -0.18500 
0.07700 0.05950 -0.19000 
0.02050 0.11650 -0.17750 
0.03500 0.02550 -0.13050 
0.05550 0.10200 -0.12050 
0.09850 0.05550 -0.08500 
0.09900 0.07900 -0.12100 
0.04450 0.13450 -0.16150 
0.04400 0.09850 -0.12650 
-0.00050 0.16600 0.01050 
0.15850 0.05450 -0.02600 
0.03800 0.07050 -0.09600 
0.08450 0.09850 -0.02650 
0.07300 0.04100 -0.05150 
0.02350 0.11550 -0.07100 
0.05800 0.11450 -0.19250 
0.07000 0.19350 0.11450 
-0.06850 0.03650 0.08750 
0.04050 0.05700 -0.02050 
0.13300 0.09900 -0.19500 
0.02700 -0.00700 -0.12650 
0.05050 0.04050 -0.15750 
0.07600 0.06850 -0.16150 
-0.06700 -0.08500 0.05150 
0.05050 0.01950 -0.06100 
0.11700 0.14750 -0.27450 
0.08900 0.03700 -0.05950 
0.06050 0.02650 -0.07850 
0.15850 0.18300 0.05000 
-0.03700 0.05100 -0.15750 
0.10450 0.08050 -0.14150 
0.10050 0.11400 -0.19200 
0.07950 0.13050 -0.15700 
0.01650 0.04700 -0.09850 
0.15800 0.04400 -0.21350 
0.09700 0.05750 0.00850 
0.03300 0.03850 -0.15850 
-0.07400 0.07050 -0.03150 
0.06500 0.04800 -0.02750 
0.09400 0.03100 -0.05150 
0.07100 -0.02400 -0.12450 
0.04950 0.04750 -0.17950 
0.00950 0.14900 -0.11750 
0.14050 0.10150 -0.26700 
0.10250 0.11700 -0.04850 
-0.01800 0.05100 -0.09700 
0.13050 0.14750 -0.17450 
0.12800 0.03350 -0.21450 
-0.02250 0.01300 -0.06750 
-0.01300 0.08400 0.06100 
0.04400 0.04150 -0.17100 
0.01500 0.01550 -0.11200 
0.09400 0.07850 -0.06050 
0.04000 0.01300 -0.08600 
0.08050 0.03400 -0.19700 
0.14500 0.08400 -0.20300 
0.10200 -0.05550 -0.17000 
0.10750 -0.09150 -0.07950 
0.09700 0.09350 -0.08700 
-0.00600 0.07150 -0.03800 
0.08750 0.04600 -0.04200 
0.08250 0.09950 -0.12600 
0.11150 -0.05900 0.02850 
-0.06450 0.03000 0.04550 
-0.04300 0.03300 -0.11650 
0.01900 0.08750 -0.04950 
0.04850 0.08900 -0.07350 
0.09150 0.08650 -0.35450 
0.16750 0.05800 -0.15900 
0.07200 0.19550 -0.06050 
0.13450 0.12050 -0.03200 
-0.10000 0.09700 -0.06600 
0.10700 0.06350 -0.23550 
-0.03200 0.02600 -0.05950 
0.04150 -0.03050 -0.02750 
0.16550 0.15550 -0.07700 
0.07000 0.09100 0.06050 
0.07500 0.07150 -0.12500 
-0.00650 0.12550 -0.15950 
0.05550 0.07250 -0.17500 
0.02400 0.01450 -0.19800 
0.09050 0.12050 -0.12750 
0.05200 0.08400 0.01100 
0.04550 -0.10350 -0.10750 
0.02150 0.06350 -0.12100 
-0.06300 0.05000 -0.07350 
0.16800 -0.01250 0.02350 
0.03500 0.00250 -0.16750 
-0.07700 -0.03000 0.05650 
-0.04400 0.05500 -0.05900 
0.07150 -0.00200 -0.22550 
0.10300 0.00600 -0.03050 
0.15500 0.12050 -0.05900 
-0.04650 0.03350 0.01150 
0.02150 0.07150 -0.14900 
0.08150 0.05650 -0.03100 
0.05000 0.07400 -0.09650 
-0.07150 0.08400 -0.00850 
0.01400 -0.00300 -0.15450 
-0.03100 0.01600 -0.09600 
0.03600 0.13250 0.03200 
0.12100 0.13150 0.06100 
0.06500 0.00300 -0.02000 
0.13250 0.07350 -0.04000 
0.07050 0.03450 -0.08900 
-0.00350 0.05800 -0.13400 
0.02400 0.07300 -0.07850 
0.00550 0.04050 -0.15300 
0.07200 0.06000 -0.16850 
-0.04300 0.05800 -0.02650 
0.03350 0.15300 -0.17650 
0.00950 0.11150 -0.13400 
0.13400 0.07700 -0.12550 
0.13850 0.09650 -0.03750 
0.07050 0.16900 -0.15600 
0.03000 0.17050 -0.07500 
0.07550 -0.00950 -0.26400 
0.03050 0.05900 -0.10100 
0.12000 0.01250 -0.14150 
0.13400 0.04450 -0.22500 
0.07150 0.05100 0.02200 
0.06450 0.01800 -0.06650 
-0.00550 0.04550 -0.02700 
0.04750 0.00200 -0.02800 
0.14900 0.09600 -0.17400 
0.00800 -0.00150 -0.17700 
0.03850 0.03400 -0.05400 
0.07300 0.01200 -0.12150 
0.05950 0.01700 -0.13100 
0.01600 0.03100 -0.13250 
0.04100 0.13300 -0.14700 
0.14100 0.01850 -0.16600 
-0.10500 0.07100 -0.07200 
0.08600 0.14900 -0.25000 
-0.08700 0.10100 -0.00300 
0.01300 -0.02450 -0.08700 
0.07900 0.06800 -0.18650 
0.15300 0.07450 -0.11500 
0.03500 0.04100 -0.04350 
0.00850 0.03550 -0.17550 
0.10100 0.03450 -0.11300 
0.13350 0.09900 -0.11400 
-0.01000 0.14250 -0.11100 
0.10600 0.06100 -0.01350 
0.02750 0.01900 -0.05450 
0.00600 0.07700 -0.20150 
-0.08750 0.07650 0.00400 
0.08000 0.04000 -0.10300 
0.02950 -0.02800 -0.08600 
0.04500 0.05850 -0.03600 
-0.03100 0.10900 -0.16100 
0.04350 0.21000 0.00500 
0.02850 0.07650 -0.05050 
0.14500 0.18200 -0.01050 
0.13550 0.01300 -0.23750 
0.13750 0.05750 -0.27000 
-0.10150 0.03950 -0.01850 
0.08850 0.08100 -0.01250 
0.03950 0.07200 -0.04600 
-0.01150 -0.07200 -0.03800 
0.10100 0.03750 0.00600 
0.10100 0.04500 -0.19850 
-0.01350 0.03400 -0.09400 
0.04200 0.10100 -0.00850 
0.01800 -0.00600 0.12050 
0.07200 0.12150 -0.04350 
0.09000 0.07200 -0.01700 
-0.01550 0.10300 -0.01100 
0.06100 0.06850 -0.16550 
0.06050 -0.05900 -0.05850 
0.10500 0.03650 -0.08250 
0.13550 0.05900 -0.15200 
0.05100 -0.04800 -0.26750 
0.11050 0.00450 0.05900 
0.02900 0.05100 -0.07550 
-0.03650 0.09700 0.02050 
-0.04600 0.04450 -0.08000 
0.06300 0.13300 -0.10000 
0.10250 0.07500 -0.08600 
0.06250 0.06100 -0.25450 
0.08300 0.12950 -0.08350 
0.04650 0.07050 -0.13950 
0.08900 0.15900 0.06200 
-0.00000 0.09650 -0.16050 
0.08550 0.05950 -0.15450 
0.08350 -0.00300 -0.02200 
0.05200 0.08850 -0.06950 
0.08900 0.02600 -0.08050 
0.04700 0.00050 -0.08250 
0.12350 0.02700 -0.09700 
0.05350 0.13950 -0.08650 
0.15500 0.00750 -0.10850 
0.03350 -0.03600 -0.06650 
0.02450 -0.01300 -0.00500 
0.09850 0.01300 -0.16100 
0.06000 0.06450 -0.12050 
0.02200 0.07700 0.01700 
0.11350 -0.03450 -0.22400 
-0.00200 0.03100 -0.06050 
-0.09600 0.04250 0.02600 
0.08150 0.11350 -0.09150 
0.09300 0.03950 -0.03000 
-0.08750 0.06800 -0.05500 
0.00600 0.04600 -0.00800 
0.11250 0.09250 -0.25700 
0.08250 -0.00450 -0.03900 
0.07300 0.01900 -0.27450 
0.03050 0.05800 -0.05950 
-0.00800 0.00950 0.03850 
0.04800 0.13600 -0.10500 
0.11400 0.03200 0.04950 
0.06650 0.04100 -0.20900 
-0.08100 0.07300 -0.10200 
0.13900 0.04200 -0.11100 
-0.00750 0.04250 0.02100 
-0.01700 0.07400 -0.13250 
0.02350 0.09300 -0.11000 
0.03250 0.10450 -0.08900 
0.07600 0.06550 -0.09050 
0.00100 0.12850 -0.06550 
-0.06300 0.03200 0.01800 
-0.03300 -0.00800 -0.12900 
0.13850 -0.00450 -0.20950 
-0.03450 0.02400 -0.05150 
0.04750 0.18850 -0.04550 
0.02200 0.09300 -0.12450 
0.08400 -0.00150 -0.02350 
0.09950 0.07250 -0.14450 
0.11050 0.04650 -0.12800 
0.06600 -0.00300 -0.10550 
0.08350 -0.04250 -0.24700 
0.20800 0.04250 -0.06900 
0.00350 0.01700 -0.03000 
0.06300 0.05100 0.00100 
-0.08000 0.03150 -0.00050 
-0.10350 0.02900 -0.09750 
0.12700 0.05000 -0.04950 
0.07950 0.05250 -0.16100 
0.04200 -0.00650 -0.18800 
-0.03150 0.08850 -0.09050 
0.07350 -0.02650 -0.06500 
0.13150 0.07850 0.07100 
0.08400 0.00400 -0.07150 
0.13550 0.06650 -0.08600 
0.02600 0.03250 -0.05500 
-0.00650 -0.00100 -0.07500 
-0.00200 0.01250 -0.12200 
-0.07250 0.12300 -0.18900 
-0.07100 0.09600 0.05850 
0.14250 0.01550 -0.12350 
0.13400 0.05750 -0.13750 
0.05150 0.00950 -0.18750 
0.08400 -0.06000 -0.22950 
0.03850 0.01700 -0.07750 
0.04350 0.04400 0.03650 
0.18400 0.09600 -0.07700 
0.06950 0.05650 -0.05750 
0.08800 0.12850 0.01350 
0.17900 0.11400 -0.04800 
0.12900 0.10500 -0.09850 
0.05800 0.10250 -0.05300 
0.13550 -0.00850 -0.05250 
-0.01950 0.05050 -0.10250 
0.00050 0.03300 -0.07900 
0.03100 0.12750 -0.02050 
-0.11350 0.06650 -0.23750 
0.12500 0.04400 -0.35450 
0.07050 0.07950 -0.03900 
-0.02250 0.01350 -0.07300 
0.05000 0.07100 -0.08650 
0.07200 0.06650 -0.08500 
0.07150 -0.03950 -0.13150 
0.01900 -0.01750 -0.20600 
0.01150 0.09500 -0.12550 
-0.05350 0.12450 -0.03000 
-0.03100 0.07650 -0.04750 
-0.00300 -0.04750 -0.06050 
-0.10600 0.03050 -0.19600 
0.01400 -0.05500 -0.09850 
0.01800 0.10800 -0.03300 
0.03700 0.07250 -0.09100 
0.07200 -0.00850 -0.19050 
-0.04600 -0.03400 -0.03750 
0.14750 -0.03850 -0.16800 
0.04250 0.20000 -0.02900 
0.06350 -0.01850 -0.04750 
0.05150 0.10050 -0.02800 
0.18350 0.04600 -0.26350 
-0.00300 0.07800 -0.05250 
-0.00450 0.02000 0.06450 
-0.04700 0.05650 0.13800 
0.07350 0.02050 -0.19200 
0.03050 0.02200 -0.07250 
0.05200 0.12450 -0.08000 
0.09250 0.07650 -0.05800 
0.10250 0.11450 -0.08800 
0.08450 0.11400 -0.03150 
0.06550 -0.02350 -0.06750 
0.07100 0.05100 -0.15100 
-0.09600 0.00350 -0.17600 
0.10300 0.00050 -0.18750 
-0.09250 0.12550 -0.02900 
0.00150 -0.02750 0.02650 
0.04200 0.01100 -0.11450 
-0.08150 0.10800 -0.01250 
-0.04750 0.00650 0.04900 
0.05150 -0.02750 -0.08200 
0.16150 0.04550 -0.25200 
-0.10150 0.06200 -0.19000 
0.10200 0.04350 -0.12000 
0.07250 0.09050 -0.21050 
0.12000 0.06700 0.00750 
0.01750 0.04200 -0.10500 
0.11600 0.03100 -0.27550 
0.06700 0.21150 -0.11800 
-0.05950 0.10150 0.04150 
-0.01050 0.08750 -0.06850 
-0.03000 0.01500 0.00200 
0.05550 0.00250 0.01250 
0.01200 0.05450 -0.11050 
0.07500 0.04000 -0.21400 
0.06800 0.08600 -0.18200 
0.01650 0.02350 -0.07650 
-0.01900 0.12600 -0.15250 
-0.09650 0.09850 -0.21650 
0.09400 0.01000 -0.04550 
0.07200 0.06150 -0.14450 
0.04050 0.06000 -0.18500 
0.03050 -0.02200 -0.07800 
0.08650 0.09750 -0.16400 
-0.00000 0.08450 -0.14050 
0.14000 0.08600 0.07500 
0.04650 0.08400 -0.10650 
0.12800 0.01650 -0.19100 
0.06450 -0.00350 -0.03150 
0.07800 0.01300 -0.06550 
0.06100 0.17300 -0.01150 
0.14350 0.10750 -0.04500 
0.10400 0.03750 0.19100 
0.13300 0.11150 -0.00450 
0.07850 -0.01550 -0.20800 
-0.01250 0.08050 -0.13600 
0.08400 0.14600 -0.11650 
0.10350 0.01800 -0.03450 
0.01750 0.08750 -0.10050 
0.08900 -0.03250 -0.16800 
0.09200 0.05950 -0.09900 
0.05200 0.05400 -0.09150 
0.11800 -0.05550 0.00100 
0.11750 0.09600 -0.06450 
0.05750 0.03650 0.03150 
0.06250 0.14000 -0.04100 
-0.03900 -0.01550 -0.12900 
0.06800 0.04050 -0.20250 
0.14700 0.14800 -0.12450 
0.03250 0.03600 -0.13800 
0.09900 0.08400 -0.18950 
0.05700 -0.03650 -0.05200 
0.07300 0.02800 -0.06800 
0.21000 0.03550 -0.00700 
-0.00650 0.11000 -0.14950 
0.01350 0.05300 -0.05300 
0.04700 0.04100 -0.20450 
-0.16000 -0.08350 -0.00750 
0.03350 0.01400 -0.07750 
0.01250 -0.03150 -0.06750 
0.12950 -0.03050 -0.12500 
0.06600 0.02600 -0.08900 
0.13150 0.07800 -0.22500 
0.04850 -0.01400 -0.01400 
0.10700 0.15750 -0.06550 