# vtk DataFile Version 2.0 
Xm, Ym, Zm, Uvecs, timestep 10094 
ASCII 
 
DATASET POLYDATA POINTS 494 float 
  5.934   2.782 -70.534 
  3.027  10.337 -70.981 
 -2.268  -1.136 -70.212 
 -0.103   9.938 -72.079 
 -0.667   2.103 -69.214 
 -6.627  -4.072 -71.620 
  3.135  11.073 -71.358 
 -4.588   3.436 -69.877 
  4.964  -1.185 -71.282 
 -6.874  -0.324 -70.416 
 10.771   4.934 -73.243 
 -3.368  -3.452 -72.011 
  0.498  -3.948 -71.316 
 -1.456   2.740 -69.304 
  7.539   2.112 -74.317 
 10.610   6.595 -69.233 
 12.421   1.161 -68.355 
 -6.553  -2.721 -71.694 
 -8.137   7.953 -68.964 
-10.067  -0.204 -71.273 
 -5.524   8.201 -66.493 
  6.389   5.016 -71.115 
  7.804  -5.609 -68.529 
-12.735  -8.851 -71.010 
  3.785   2.497 -70.504 
 -4.586  -3.029 -69.203 
  6.156   0.495 -67.898 
  6.286  12.738 -64.740 
 15.040   3.551 -69.553 
  6.905   0.132 -73.135 
  0.145  -4.970 -72.541 
 -7.328  -4.292 -71.371 
 -0.583   4.108 -66.929 
 -2.192   9.031 -66.084 
 -2.337   0.912 -73.710 
  6.950  11.724 -67.496 
  8.204 -11.038 -75.470 
  5.715  -8.447 -74.156 
 -7.559   5.811 -64.858 
  4.110  12.210 -67.477 
-15.362   9.300 -74.632 
 -1.314   4.411 -71.075 
  4.652  -6.447 -67.916 
 -3.791   0.945 -73.548 
 -2.120   6.009 -67.778 
 -4.905   8.507 -71.103 
 10.434  10.418 -70.136 
 -0.547   7.744 -68.555 
  3.904  -6.335 -67.904 
 -2.652  -1.261 -66.398 
 -5.452  -8.193 -71.106 
 -9.967  -3.812 -68.776 
 -8.291   4.635 -72.261 
 10.092  -2.950 -71.768 
-10.976  -3.036 -73.409 
-14.879   6.378 -70.696 
-10.776   8.933 -69.992 
  0.101  -1.069 -68.234 
 -5.794   5.040 -64.038 
 -1.661  10.789 -67.408 
-12.582   8.802 -70.061 
  9.188  10.356 -66.911 
 -6.269   4.517 -64.584 
 -5.687   1.365 -63.547 
  0.746  -0.271 -69.162 
-11.590   9.029 -72.559 
 15.744   9.941 -72.167 
 10.871  -7.730 -68.160 
 -2.410  -1.745 -63.622 
  2.298   8.678 -72.421 
  2.297  -8.322 -73.581 
 -7.016   4.005 -74.081 
  3.600  -7.632 -71.518 
 -5.463   3.294 -64.896 
 -9.190   7.675 -66.827 
 -3.336   3.764 -67.749 
  7.556   1.057 -74.547 
 -4.337  -5.402 -70.964 
 -9.747  -2.108 -70.974 
  0.173  10.945 -72.041 
 10.140  -9.633 -67.346 
-10.742  -3.698 -68.751 
 -9.509   5.636 -67.409 
  2.657  -2.679 -66.504 
-10.291  -8.778 -70.905 
-11.601   8.788 -65.916 
 13.733   3.901 -65.516 
 -3.606  -5.264 -67.422 
  0.501   6.500 -77.540 
 -8.832  13.300 -64.157 
  1.971  -7.084 -69.031 
 -2.615   1.469 -64.946 
  5.905   8.602 -68.435 
  8.341  -3.002 -63.463 
  8.884   9.574 -73.133 
-13.540  -1.181 -66.766 
  2.454   0.069 -73.368 
 -0.081   2.200 -69.324 
 -4.773   5.545 -61.640 
  3.412  -1.082 -65.856 
 -4.523  -4.082 -71.001 
 -3.210 -10.462 -67.996 
 -9.537   4.218 -64.802 
 -9.471  12.057 -66.277 
 11.061   1.570 -69.530 
  4.936   5.358 -64.733 
 -8.114  -7.309 -76.386 
  5.908  -2.687 -62.533 
 -8.584  10.549 -65.136 
-11.659  -3.367 -65.887 
  2.898  -5.771 -68.358 
 -7.305   1.091 -63.736 
 -4.204   1.723 -64.310 
  1.930   7.146 -69.779 
  6.470 -10.016 -67.891 
  0.830   2.926 -64.149 
 -0.057 -11.808 -64.981 
  5.130  -2.075 -63.240 
  7.190  10.953 -66.605 
 10.334  -2.265 -65.558 
-12.664   3.550 -71.315 
 17.065   6.161 -66.291 
 -5.852   4.041 -70.650 
  3.575  -3.487 -67.798 
 -2.681  -6.598 -66.314 
 -6.693   7.525 -63.939 
  4.099  -0.233 -66.139 
 -5.028   7.608 -61.108 
 -2.664   7.560 -68.903 
-15.314   9.851 -72.787 
  1.481 -11.681 -64.249 
 -3.744  -0.560 -62.947 
  9.650  -4.749 -70.085 
  9.558  11.050 -68.041 
 -3.144   0.374 -65.856 
 -8.938  -0.647 -65.939 
 -3.787 -11.229 -66.773 
 -2.936   7.958 -66.201 
 -9.867   0.478 -63.581 
 14.478  -0.450 -73.543 
  3.122   9.299 -64.251 
 10.220   8.892 -67.757 
 -7.549  10.207 -76.255 
 -9.636 -11.361 -73.480 
 -0.169   2.622 -60.770 
  9.006  -4.858 -63.383 
  1.861 -12.185 -63.626 
 -5.065  -5.203 -62.869 
 10.459   2.768 -63.615 
 -3.615 -11.988 -66.712 
  0.159  -0.010 -61.499 
 -7.287   3.287 -62.638 
-10.264  12.655 -65.378 
  4.526  -6.271 -64.475 
 -4.360  13.027 -64.980 
  1.916   1.500 -62.554 
  2.769  -8.279 -69.565 
 -6.704 -10.570 -72.790 
-14.304   0.714 -73.327 
  8.544  -7.123 -67.766 
  3.100  -5.418 -68.594 
 -7.236  -1.857 -66.163 
 -1.834   1.534 -66.069 
 -1.578   8.253 -70.063 
  8.708  -0.306 -70.589 
  7.921  -7.486 -67.557 
-11.583  -4.602 -74.077 
-10.782  -0.781 -67.234 
  5.253 -11.119 -73.069 
 11.288  -1.783 -73.975 
 16.486   8.500 -69.188 
 -7.399  -8.941 -70.926 
 12.921   7.583 -68.516 
-10.730   0.193 -67.287 
-12.295   4.887 -66.249 
 -7.801   0.995 -61.730 
 -6.565   5.405 -67.224 
-13.259  -8.474 -71.857 
 -4.873   7.372 -64.971 
 13.098  -3.462 -66.893 
 15.866  -2.805 -68.890 
 -2.656   1.174 -68.496 
 -7.736   9.614 -67.813 
 -4.867  11.022 -67.522 
  2.032 -11.311 -64.286 
  9.967  -4.328 -65.650 
  7.318   7.959 -64.924 
 -1.191  -4.596 -70.097 
 -4.417   2.521 -62.454 
-12.136   7.255 -69.418 
  2.313  -5.411 -67.925 
  2.043   5.652 -69.346 
  7.861  -7.842 -66.870 
 -8.818  -0.173 -61.144 
 -1.363  -4.675 -71.910 
 -0.038   2.783 -68.485 
-10.282  11.511 -65.901 
 -3.386  -2.150 -68.768 
-15.753  -1.014 -73.432 
  3.590   7.234 -61.185 
  5.095   2.529 -65.617 
 -5.646   0.603 -68.203 
 -2.349   7.341 -75.622 
 -6.212  -8.710 -66.552 
 -9.653 -11.682 -66.579 
 16.472   9.348 -71.359 
 12.592  -0.333 -64.659 
  4.635  -9.155 -66.761 
-13.153  12.652 -68.768 
-15.119   3.263 -72.573 
  0.208  -4.141 -74.872 
-10.216   4.353 -72.977 
  1.958  -1.337 -61.691 
  6.275  -0.035 -65.804 
  9.890   2.718 -71.632 
  6.784   8.458 -68.724 
 15.484  10.422 -65.553 
-11.497  -8.010 -63.603 
  7.056 -12.212 -72.684 
 11.785  -6.591 -70.194 
 -6.587  12.751 -63.648 
-11.107   2.763 -68.213 
 -0.616   8.174 -76.915 
  4.810   2.747 -62.579 
 14.100  11.435 -69.529 
 -5.437   0.537 -63.744 
  0.631 -10.470 -70.290 
  7.046  10.739 -74.483 
  3.543   0.556 -61.192 
  8.832  -5.056 -66.148 
 -9.903  -4.273 -72.966 
 15.938  -0.046 -72.970 
 10.865   0.765 -73.927 
  3.757   5.895 -69.500 
 15.532  12.495 -68.908 
 12.283  -4.730 -70.070 
 12.431  -5.184 -70.053 
 -1.528  -8.532 -63.768 
  7.215  -4.853 -72.370 
  9.015  -0.721 -67.740 
 11.329  12.768 -68.532 
  1.061  -1.904 -70.081 
  1.562  -2.537 -63.379 
 11.220  10.301 -66.500 
 -1.119 -11.311 -67.367 
  9.054 -10.147 -68.904 
  6.833 -10.930 -71.268 
  3.749 -11.104 -66.741 
 -4.906   6.371 -73.401 
 14.895 -12.525 -72.720 
 12.374   8.113 -68.051 
 12.271   5.707 -71.785 
  8.537 -11.631 -71.711 
 12.192  -0.627 -68.294 
 10.631  -2.540 -68.034 
-15.671   4.218 -75.203 
  7.115  -4.564 -68.912 
 10.547   1.828 -66.828 
-11.015 -12.319 -64.500 
-11.370  -3.473 -67.666 
 14.302  11.126 -66.105 
 -6.568   2.827 -66.335 
 11.869  -9.234 -65.391 
 16.321  -7.781 -70.876 
 -1.550  -9.700 -65.736 
-14.113   9.534 -67.215 
 -9.230   7.771 -72.502 
 12.413   3.630 -66.474 
  4.765   9.650 -68.021 
-14.100   1.931 -67.321 
 11.984  10.736 -72.558 
  0.848  -7.219 -69.904 
-13.701  -6.928 -67.523 
 10.001   8.073 -64.340 
  8.663   5.957 -64.077 
  9.825  -7.079 -68.467 
  0.847  -1.613 -76.629 
 -5.178  -7.897 -76.013 
  2.953   6.159 -63.331 
 -2.947  10.175 -74.153 
 -3.609   0.268 -74.350 
 -6.468   6.776 -72.440 
 16.227   4.666 -66.416 
  0.693   0.750 -72.068 
 11.204   5.013 -63.674 
  9.379   9.671 -61.744 
 -9.131  10.991 -69.255 
  5.728   1.238 -74.357 
  8.544  12.529 -66.112 
-15.817  -3.771 -73.703 
 -3.907   8.936 -73.799 
 15.366  -6.788 -69.344 
 -8.056   2.528 -77.837 
 12.465  -6.678 -66.894 
 -1.152 -12.462 -64.877 
 -4.987   6.252 -64.180 
  3.917 -12.720 -68.376 
  1.372   8.138 -73.994 
-14.180   0.483 -72.139 
 14.872   0.591 -63.172 
 -3.612  11.148 -70.929 
 12.835   2.484 -70.038 
 -0.398  12.886 -64.849 
 11.948 -11.872 -68.931 
 -0.909   4.755 -66.172 
 -7.417 -11.872 -75.020 
  4.798   8.110 -69.459 
  1.417   8.837 -71.382 
  5.024   4.093 -70.257 
  6.124   7.316 -73.453 
  4.308  10.489 -67.186 
 -5.376  10.410 -69.490 
 -3.997   7.865 -69.078 
  6.749  12.006 -71.897 
  3.013  12.081 -68.040 
 -7.066  -6.558 -65.951 
  6.844  -6.435 -64.327 
 12.386  -7.590 -63.863 
  3.138  11.775 -61.953 
 11.271   6.638 -70.171 
 -4.348   4.774 -66.068 
  1.301   4.730 -66.208 
 16.182  -5.700 -73.163 
-13.229  12.131 -74.933 
 -7.003  -2.798 -64.138 
 -5.857  -6.187 -58.887 
  6.428  -3.151 -66.127 
 -1.248   8.992 -71.072 
 -2.670  12.983 -61.394 
 12.042  -1.930 -64.950 
  0.349   7.903 -65.725 
-12.499   2.617 -70.893 
 -0.081   0.986 -76.198 
 -5.719   2.189 -61.200 
 -2.580   9.733 -65.790 
 -2.328   7.839 -71.394 
 -7.944   6.542 -68.365 
 -2.200   6.732 -65.755 
  0.535  -6.514 -66.307 
 -6.398 -10.465 -70.769 
 -4.137   3.978 -60.734 
  0.992  11.765 -66.994 
-11.931 -11.761 -65.142 
 -5.338  10.582 -67.115 
-13.060  -6.447 -67.107 
-11.593   4.127 -65.674 
  1.490  -6.988 -69.400 
 -2.280   0.355 -62.751 
  0.852  -8.381 -68.016 
 10.543  12.051 -66.812 
  1.394   2.066 -76.297 
 -6.211  -2.507 -68.342 
-14.296   5.351 -67.892 
  5.237  -6.839 -73.308 
  2.712 -11.576 -62.896 
 13.025   9.849 -63.740 
 -8.178   4.670 -75.497 
  0.365   3.387 -64.847 
-11.121   4.625 -76.203 
-11.579 -10.307 -62.969 
 -1.769  -9.125 -62.848 
 17.360  -1.644 -67.007 
 -8.065  -2.105 -68.368 
 -5.652  11.204 -68.927 
  8.508 -12.615 -64.181 
-12.535  13.056 -65.387 
 -7.371  -6.131 -63.493 
  3.382   1.922 -74.520 
 -5.152  -9.788 -66.563 
  8.705   7.571 -72.956 
 -9.372  -9.372 -65.391 
  6.217   3.797 -74.802 
  6.899   4.367 -69.020 
 -1.874  -8.367 -73.267 
  7.441  -6.248 -62.200 
  1.971  -4.089 -65.717 
  1.698  -8.313 -62.733 
 10.713   4.561 -75.735 
-16.031   4.187 -73.551 
-10.759 -12.245 -70.772 
-11.011  -1.290 -62.924 
  7.943  -2.081 -57.064 
 15.967  11.604 -71.733 
 -6.188   1.684 -61.721 
  7.375  -3.325 -76.787 
 10.801  10.308 -61.605 
 -7.738   7.247 -58.566 
 13.244   3.616 -63.892 
  0.946  -2.616 -61.046 
 -7.588 -10.143 -64.994 
 11.334  -4.532 -59.517 
 12.566   4.021 -65.136 
 -2.341  -9.617 -72.159 
 -6.305  -6.933 -67.734 
 -5.716  -4.137 -61.258 
 17.092   0.970 -67.641 
-13.761   4.526 -67.868 
-13.915  -8.704 -72.060 
 14.028  -1.728 -61.529 
 -0.357  -4.604 -63.282 
  8.797   7.031 -60.629 
 -8.204  -0.433 -62.251 
 -4.934 -11.541 -62.272 
  5.827 -11.711 -75.311 
 10.633  -6.883 -71.518 
 10.616  -7.585 -62.041 
 -5.204  12.986 -63.537 
  3.394  -9.294 -72.525 
  2.418  -7.007 -72.876 
-14.104   6.234 -73.243 
  7.403  -1.250 -70.859 
 -0.015 -10.637 -68.713 
-10.968  -4.415 -67.043 
-11.890   9.352 -60.736 
 14.820  -3.351 -74.745 
  6.210  11.047 -61.165 
-14.119   9.373 -75.149 
 15.430   0.285 -70.114 
-13.917  -4.830 -75.090 
  6.106   7.657 -66.288 
  1.958 -11.506 -63.192 
  8.756 -12.038 -73.198 
 -2.499   5.083 -73.906 
-14.005 -10.604 -68.432 
 11.539 -12.025 -72.178 
  0.909   7.407 -60.879 
 -7.508   4.128 -58.764 
 -0.068   8.825 -67.553 
 14.365  -6.507 -73.458 
-13.837   1.353 -69.031 
 11.329   9.262 -62.443 
 12.601 -12.114 -66.965 
 -6.467   2.336 -73.206 
 14.438  -0.700 -65.524 
 11.770  12.997 -66.993 
 12.997  -4.725 -75.091 
  1.461   0.655 -72.982 
-11.584  -2.327 -74.367 
  3.043   0.074 -64.029 
  1.157  -1.833 -64.238 
 13.753  -9.837 -65.866 
  9.157  11.607 -64.308 
 -2.546  -4.899 -63.235 
 -9.732   9.705 -63.277 
-11.460  -6.372 -70.559 
 -9.908   7.454 -61.301 
  7.097 -11.861 -65.054 
  5.086   9.596 -73.176 
 -5.017   9.210 -65.465 
 -0.566   4.127 -71.537 
 -5.059   7.904 -68.422 
 15.745 -13.178 -68.179 
 -0.730  -2.468 -63.360 
  8.581  -3.313 -67.036 
-12.861  12.617 -67.187 
 -0.033  -1.444 -67.773 
 -0.198 -11.093 -76.582 
-13.809  10.273 -74.671 
  2.058  -9.341 -57.784 
-11.888  10.556 -67.950 
  1.907   7.787 -68.197 
 -6.254  -4.740 -65.747 
  8.156   3.535 -66.755 
 -8.121  12.954 -64.331 
  2.748  -4.991 -68.437 
  3.101  13.417 -68.289 
  7.658   5.101 -71.215 
 -9.991  -1.250 -69.464 
-10.333  -3.265 -71.307 
  7.494  -3.923 -64.483 
  0.732   5.149 -71.824 
 13.892  -5.585 -68.172 
  2.475  -1.252 -72.652 
 -1.643   0.454 -64.101 
 17.022  -9.143 -67.822 
 -4.844  -5.818 -68.026 
 -1.849  -2.756 -61.639 
 11.604   6.295 -65.355 
 14.461  -7.718 -75.394 
  4.772  10.753 -65.522 
 12.930   0.688 -65.926 
  8.718   3.157 -64.004 
 -3.331  -4.876 -66.142 
-13.652   3.153 -74.266 
-12.708  -9.632 -65.362 
  2.087  -3.317 -66.773 
 -0.778   9.876 -60.433 
  0.202  -7.233 -75.452 
 -6.592  -2.977 -63.632 
 -2.769   6.212 -73.755 
 -0.617  -9.653 -72.733 
  9.294 -12.757 -73.520 
 17.831  13.288 -71.011 
 -7.841  13.012 -71.183 

 VERTICES 494 988 
1 0 
1 1 
1 2 
1 3 
1 4 
1 5 
1 6 
1 7 
1 8 
1 9 
1 10 
1 11 
1 12 
1 13 
1 14 
1 15 
1 16 
1 17 
1 18 
1 19 
1 20 
1 21 
1 22 
1 23 
1 24 
1 25 
1 26 
1 27 
1 28 
1 29 
1 30 
1 31 
1 32 
1 33 
1 34 
1 35 
1 36 
1 37 
1 38 
1 39 
1 40 
1 41 
1 42 
1 43 
1 44 
1 45 
1 46 
1 47 
1 48 
1 49 
1 50 
1 51 
1 52 
1 53 
1 54 
1 55 
1 56 
1 57 
1 58 
1 59 
1 60 
1 61 
1 62 
1 63 
1 64 
1 65 
1 66 
1 67 
1 68 
1 69 
1 70 
1 71 
1 72 
1 73 
1 74 
1 75 
1 76 
1 77 
1 78 
1 79 
1 80 
1 81 
1 82 
1 83 
1 84 
1 85 
1 86 
1 87 
1 88 
1 89 
1 90 
1 91 
1 92 
1 93 
1 94 
1 95 
1 96 
1 97 
1 98 
1 99 
1 100 
1 101 
1 102 
1 103 
1 104 
1 105 
1 106 
1 107 
1 108 
1 109 
1 110 
1 111 
1 112 
1 113 
1 114 
1 115 
1 116 
1 117 
1 118 
1 119 
1 120 
1 121 
1 122 
1 123 
1 124 
1 125 
1 126 
1 127 
1 128 
1 129 
1 130 
1 131 
1 132 
1 133 
1 134 
1 135 
1 136 
1 137 
1 138 
1 139 
1 140 
1 141 
1 142 
1 143 
1 144 
1 145 
1 146 
1 147 
1 148 
1 149 
1 150 
1 151 
1 152 
1 153 
1 154 
1 155 
1 156 
1 157 
1 158 
1 159 
1 160 
1 161 
1 162 
1 163 
1 164 
1 165 
1 166 
1 167 
1 168 
1 169 
1 170 
1 171 
1 172 
1 173 
1 174 
1 175 
1 176 
1 177 
1 178 
1 179 
1 180 
1 181 
1 182 
1 183 
1 184 
1 185 
1 186 
1 187 
1 188 
1 189 
1 190 
1 191 
1 192 
1 193 
1 194 
1 195 
1 196 
1 197 
1 198 
1 199 
1 200 
1 201 
1 202 
1 203 
1 204 
1 205 
1 206 
1 207 
1 208 
1 209 
1 210 
1 211 
1 212 
1 213 
1 214 
1 215 
1 216 
1 217 
1 218 
1 219 
1 220 
1 221 
1 222 
1 223 
1 224 
1 225 
1 226 
1 227 
1 228 
1 229 
1 230 
1 231 
1 232 
1 233 
1 234 
1 235 
1 236 
1 237 
1 238 
1 239 
1 240 
1 241 
1 242 
1 243 
1 244 
1 245 
1 246 
1 247 
1 248 
1 249 
1 250 
1 251 
1 252 
1 253 
1 254 
1 255 
1 256 
1 257 
1 258 
1 259 
1 260 
1 261 
1 262 
1 263 
1 264 
1 265 
1 266 
1 267 
1 268 
1 269 
1 270 
1 271 
1 272 
1 273 
1 274 
1 275 
1 276 
1 277 
1 278 
1 279 
1 280 
1 281 
1 282 
1 283 
1 284 
1 285 
1 286 
1 287 
1 288 
1 289 
1 290 
1 291 
1 292 
1 293 
1 294 
1 295 
1 296 
1 297 
1 298 
1 299 
1 300 
1 301 
1 302 
1 303 
1 304 
1 305 
1 306 
1 307 
1 308 
1 309 
1 310 
1 311 
1 312 
1 313 
1 314 
1 315 
1 316 
1 317 
1 318 
1 319 
1 320 
1 321 
1 322 
1 323 
1 324 
1 325 
1 326 
1 327 
1 328 
1 329 
1 330 
1 331 
1 332 
1 333 
1 334 
1 335 
1 336 
1 337 
1 338 
1 339 
1 340 
1 341 
1 342 
1 343 
1 344 
1 345 
1 346 
1 347 
1 348 
1 349 
1 350 
1 351 
1 352 
1 353 
1 354 
1 355 
1 356 
1 357 
1 358 
1 359 
1 360 
1 361 
1 362 
1 363 
1 364 
1 365 
1 366 
1 367 
1 368 
1 369 
1 370 
1 371 
1 372 
1 373 
1 374 
1 375 
1 376 
1 377 
1 378 
1 379 
1 380 
1 381 
1 382 
1 383 
1 384 
1 385 
1 386 
1 387 
1 388 
1 389 
1 390 
1 391 
1 392 
1 393 
1 394 
1 395 
1 396 
1 397 
1 398 
1 399 
1 400 
1 401 
1 402 
1 403 
1 404 
1 405 
1 406 
1 407 
1 408 
1 409 
1 410 
1 411 
1 412 
1 413 
1 414 
1 415 
1 416 
1 417 
1 418 
1 419 
1 420 
1 421 
1 422 
1 423 
1 424 
1 425 
1 426 
1 427 
1 428 
1 429 
1 430 
1 431 
1 432 
1 433 
1 434 
1 435 
1 436 
1 437 
1 438 
1 439 
1 440 
1 441 
1 442 
1 443 
1 444 
1 445 
1 446 
1 447 
1 448 
1 449 
1 450 
1 451 
1 452 
1 453 
1 454 
1 455 
1 456 
1 457 
1 458 
1 459 
1 460 
1 461 
1 462 
1 463 
1 464 
1 465 
1 466 
1 467 
1 468 
1 469 
1 470 
1 471 
1 472 
1 473 
1 474 
1 475 
1 476 
1 477 
1 478 
1 479 
1 480 
1 481 
1 482 
1 483 
1 484 
1 485 
1 486 
1 487 
1 488 
1 489 
1 490 
1 491 
1 492 
1 493 
POINT_DATA 494 
SCALARS MeanU double 1 
LOOKUP_TABLE default
0.15926 
0.12641 
0.13426 
0.09347 
0.12877 
0.13924 
0.15541 
0.17319 
0.22532 
0.08098 
0.14317 
0.10675 
0.16951 
0.12504 
0.12810 
0.15060 
0.11230 
0.17715 
0.09211 
0.13215 
0.15828 
0.15849 
0.05951 
0.15290 
0.11901 
0.15422 
0.17695 
0.14229 
0.07218 
0.10510 
0.10605 
0.15108 
0.12628 
0.09784 
0.16081 
0.05204 
0.10706 
0.17931 
0.23944 
0.08102 
0.06049 
0.15058 
0.22443 
0.11702 
0.11943 
0.07652 
0.12253 
0.07274 
0.20493 
0.10563 
0.15886 
0.15537 
0.06054 
0.15808 
0.12953 
0.05266 
0.09585 
0.12525 
0.18778 
0.12835 
0.08165 
0.07052 
0.21487 
0.11310 
0.15784 
0.07133 
0.14555 
0.13168 
0.11161 
0.16401 
0.19432 
0.06974 
0.11108 
0.15924 
0.19241 
0.14833 
0.10638 
0.12855 
0.09692 
0.19042 
0.11436 
0.16631 
0.09910 
0.14273 
0.16762 
0.10286 
0.19066 
0.16162 
0.11212 
0.11432 
0.14378 
0.11261 
0.10208 
0.16091 
0.11984 
0.09505 
0.14571 
0.13006 
0.07423 
0.17327 
0.11786 
0.13622 
0.18896 
0.05938 
0.08735 
0.08861 
0.08355 
0.17185 
0.15074 
0.19126 
0.17753 
0.11921 
0.14417 
0.11032 
0.16056 
0.11581 
0.10965 
0.17393 
0.08436 
0.12979 
0.11960 
0.12462 
0.07104 
0.14388 
0.13724 
0.21133 
0.18990 
0.16545 
0.10381 
0.04655 
0.14776 
0.08017 
0.15011 
0.07701 
0.15611 
0.11854 
0.15214 
0.10838 
0.11854 
0.07883 
0.17506 
0.04222 
0.04762 
0.09767 
0.12262 
0.12484 
0.08242 
0.12447 
0.18829 
0.11553 
0.10699 
0.07807 
0.06030 
0.16598 
0.11486 
0.14261 
0.16556 
0.08697 
0.08750 
0.10611 
0.19939 
0.11336 
0.10522 
0.07212 
0.19358 
0.09583 
0.12345 
0.17535 
0.12802 
0.07132 
0.07084 
0.18299 
0.03267 
0.10232 
0.17642 
0.09000 
0.17634 
0.11699 
0.15311 
0.08800 
0.06211 
0.10577 
0.14112 
0.15140 
0.15543 
0.07646 
0.14796 
0.15452 
0.07389 
0.10007 
0.16176 
0.17410 
0.02270 
0.14099 
0.14658 
0.11763 
0.07283 
0.21352 
0.10929 
0.17324 
0.18843 
0.15025 
0.04334 
0.11236 
0.05230 
0.05540 
0.21828 
0.18746 
0.05746 
0.18189 
0.14872 
0.11280 
0.09277 
0.17918 
0.14069 
0.10399 
0.11847 
0.21098 
0.17568 
0.12433 
0.09636 
0.08258 
0.10431 
0.15291 
0.09163 
0.15713 
0.12933 
0.12401 
0.12331 
0.05683 
0.17438 
0.10528 
0.10696 
0.17675 
0.07278 
0.06072 
0.08486 
0.12553 
0.12009 
0.18327 
0.10761 
0.18260 
0.14981 
0.05364 
0.16857 
0.06652 
0.15752 
0.12304 
0.06777 
0.09812 
0.02438 
0.08475 
0.16885 
0.07537 
0.03971 
0.09104 
0.15177 
0.17546 
0.14517 
0.15871 
0.05957 
0.15190 
0.18022 
0.05561 
0.16381 
0.11505 
0.04344 
0.14023 
0.09091 
0.12371 
0.06996 
0.14618 
0.09304 
0.14744 
0.15222 
0.13454 
0.08608 
0.04108 
0.17250 
0.07938 
0.08248 
0.09296 
0.14948 
0.09808 
0.12850 
0.14262 
0.07044 
0.14005 
0.10279 
0.15963 
0.08628 
0.05458 
0.06954 
0.08325 
0.14559 
0.12566 
0.15763 
0.08606 
0.08694 
0.12058 
0.06667 
0.13078 
0.10763 
0.06838 
0.17539 
0.05316 
0.12627 
0.18092 
0.13514 
0.12102 
0.10729 
0.11979 
0.06909 
0.12058 
0.11030 
0.22834 
0.21227 
0.14986 
0.16554 
0.17903 
0.16889 
0.16569 
0.06493 
0.05266 
0.18678 
0.16678 
0.18549 
0.09938 
0.15672 
0.10999 
0.11336 
0.09821 
0.05946 
0.05029 
0.12494 
0.07442 
0.15196 
0.13305 
0.12752 
0.14926 
0.09140 
0.19524 
0.04197 
0.17978 
0.14044 
0.14005 
0.16122 
0.08646 
0.16873 
0.11116 
0.09126 
0.07687 
0.08642 
0.16676 
0.16033 
0.18003 
0.06430 
0.17804 
0.04722 
0.08009 
0.12590 
0.05279 
0.14615 
0.16209 
0.12177 
0.04828 
0.20718 
0.13852 
0.09694 
0.10280 
0.09171 
0.25556 
0.12654 
0.13220 
0.09631 
0.11705 
0.19966 
0.26030 
0.11105 
0.12761 
0.16816 
0.14631 
0.08257 
0.12265 
0.11275 
0.10505 
0.08377 
0.19045 
0.15588 
0.10314 
0.17587 
0.11756 
0.14076 
0.10833 
0.09684 
0.08169 
0.17486 
0.09114 
0.11252 
0.12028 
0.17262 
0.12014 
0.12083 
0.12111 
0.13915 
0.10536 
0.13062 
0.16725 
0.10576 
0.12548 
0.18677 
0.16531 
0.17065 
0.14185 
0.06720 
0.16017 
0.11292 
0.17136 
0.13641 
0.16786 
0.20254 
0.12022 
0.14414 
0.11004 
0.03577 
0.18336 
0.07755 
0.13515 
0.03466 
0.18153 
0.17049 
0.12542 
0.07435 
0.04007 
0.02832 
0.04144 
0.13683 
0.10185 
0.12423 
0.14301 
0.16382 
0.10332 
0.17686 
0.15191 
0.16598 
0.09966 
0.07176 
0.04180 
0.14711 
0.15610 
0.12402 
0.07292 
0.16356 
0.09248 
0.04382 
0.18574 
0.14086 
0.07896 
0.09233 
0.09052 
0.12601 
0.17771 
0.12190 
0.12341 
0.18022 
0.14556 
0.16195 
0.08574 
0.18937 
0.15649 
0.10018 
0.03646 
0.13371 
0.05460 
0.07629 
0.20618 
0.08764 
0.17005 
0.04987 
0.11915 
0.17346 
0.13338 
0.14558 
0.09453 
0.06902 
0.13898 
0.24905 
0.07062 
0.14431 
0.08626 
0.09937 
0.09459 
0.09057 
0.07674 

 VECTORS Umean float 
0.02000 0.15100 -0.04650 
0.00350 0.11900 -0.04250 
0.03700 0.12850 -0.01200 
-0.01900 0.07200 -0.05650 
-0.00750 0.12600 0.02550 
0.01700 0.12700 -0.05450 
-0.04550 0.13550 -0.06100 
0.04850 0.16150 0.03950 
0.04500 0.16200 -0.15000 
0.03250 0.07400 0.00500 
0.04500 0.09150 -0.10050 
0.07450 0.04800 0.05950 
0.08950 0.12100 -0.07800 
0.04600 0.11600 0.00800 
-0.03550 0.12250 0.01200 
-0.01300 0.06650 -0.13450 
0.03300 0.09000 -0.05850 
0.07950 0.15750 -0.01600 
0.08650 0.00850 0.03050 
-0.01850 0.12050 0.05100 
0.08300 0.13450 -0.00850 
-0.02900 0.12350 -0.09500 
0.04400 0.03500 0.01950 
0.11400 0.10150 0.00900 
0.01050 0.11400 -0.03250 
0.10000 0.08450 -0.08150 
0.09050 0.12400 -0.08800 
0.02150 0.12650 0.06150 
0.06150 0.01650 -0.03400 
0.05600 0.05550 -0.06950 
0.06000 0.05850 -0.06500 
0.05050 0.13750 -0.03700 
0.03800 0.11150 0.04550 
0.01950 0.09550 -0.00850 
-0.00150 0.15900 -0.02400 
-0.00450 0.05150 0.00600 
0.02250 -0.03250 -0.09950 
0.13900 0.10950 -0.02900 
0.01850 0.17300 0.16450 
-0.00800 0.08000 -0.01000 
0.02800 0.05350 0.00350 
0.08700 0.12250 -0.01000 
0.09350 0.11650 -0.16750 
0.05000 0.08500 0.06300 
0.04250 0.10300 0.04300 
0.04600 0.05300 0.03050 
-0.08000 0.00750 -0.09250 
0.04000 0.05900 0.01450 
0.06100 0.11400 -0.15900 
-0.00250 0.10550 -0.00450 
0.08900 0.12900 0.02600 
-0.02600 0.15200 -0.01900 
0.04850 0.03200 -0.01700 
0.09900 0.07850 -0.09500 
0.08700 0.08700 -0.04050 
-0.01800 0.02450 -0.04300 
0.07750 0.04300 0.03650 
0.07050 0.08400 -0.06050 
0.01000 0.12750 0.13750 
0.05050 0.11800 -0.00000 
0.07100 0.03850 -0.01200 
0.01800 0.06800 0.00500 
0.06400 0.18950 0.07850 
0.04400 0.10350 0.01200 
0.09600 0.12000 -0.03600 
0.03250 0.06350 -0.00000 
-0.11150 -0.04850 0.08000 
0.10750 0.05550 -0.05200 
0.04200 0.08200 -0.06300 
-0.06050 0.14550 -0.04550 
0.05650 0.17850 -0.05200 
0.05450 0.04350 0.00100 
0.08300 0.03100 -0.06700 
0.08350 0.13100 0.03500 
0.13100 0.14050 -0.01100 
0.06700 0.13200 0.00950 
-0.06750 0.08200 -0.00600 
0.00850 0.12700 0.01800 
0.02050 0.09300 -0.01800 
-0.14750 0.11850 -0.02150 
0.06550 0.07800 0.05200 
-0.00100 0.13400 -0.09850 
0.05650 0.07200 0.03800 
0.08100 0.07900 -0.08700 
0.08650 0.06200 -0.12950 
0.07450 0.06450 0.02950 
0.11850 0.11400 -0.09650 
0.08650 0.13650 0.00250 
-0.02400 0.05450 -0.09500 
0.04500 0.09400 0.04700 
0.07700 0.07100 -0.09850 
0.00150 0.10750 0.03350 
0.02800 0.08800 -0.04350 
0.01600 0.15950 0.01400 
-0.00950 0.06300 -0.10150 
-0.00500 0.09100 -0.02700 
0.03950 0.13950 0.01450 
0.02850 0.12650 0.01000 
-0.01050 0.07250 0.01200 
0.10500 0.08750 -0.10650 
0.01900 0.11450 -0.02050 
0.06850 0.08200 -0.08450 
-0.01050 0.16300 -0.09500 
0.01250 0.05550 0.01700 
0.04000 0.06800 -0.03750 
0.05000 0.07150 0.01550 
0.04950 0.05050 0.04450 
0.03500 0.15300 -0.07000 
0.09600 0.11350 0.02500 
0.09600 0.16000 -0.04200 
0.05750 0.11700 -0.12050 
0.01100 0.09550 -0.07050 
-0.01550 0.13900 0.03500 
-0.02250 0.10800 -0.00100 
0.07100 0.12500 -0.07150 
0.09350 0.06550 -0.01950 
0.05500 0.04500 -0.08350 
0.06950 0.14350 -0.06950 
0.02200 0.07400 0.03400 
0.04400 0.05300 -0.11000 
0.09300 0.07000 -0.02750 
0.11550 0.03750 0.02800 
0.05850 0.03500 0.02000 
0.06950 0.06650 -0.10700 
0.08950 0.10200 -0.02050 
0.00600 0.20000 0.06800 
0.12050 0.12000 -0.08450 
0.00700 0.13200 0.09950 
0.05900 0.07650 0.03800 
0.03150 -0.01350 -0.03150 
0.07700 0.05700 -0.11250 
0.05050 0.06100 -0.01250 
0.10800 0.02950 -0.10000 
-0.03950 0.06450 0.01450 
0.04150 0.14600 0.03650 
0.02450 0.08050 -0.08350 
0.08550 0.07300 -0.10250 
0.04850 0.09200 -0.03050 
0.01550 0.10750 -0.04750 
0.02300 0.03150 -0.06850 
0.08000 0.14150 -0.06500 
0.01450 -0.01550 0.03650 
-0.02800 0.03350 -0.01900 
0.03950 0.05850 -0.06750 
0.02850 0.08800 -0.08050 
-0.00350 0.12450 0.00850 
0.03650 0.01150 -0.07300 
0.05550 0.09800 -0.05300 
0.08500 0.12700 -0.11000 
0.06750 0.02450 -0.09050 
0.03900 0.09250 -0.03700 
-0.01650 0.07450 -0.01650 
0.04450 0.04050 0.00400 
0.05550 0.07550 -0.13700 
0.01300 0.11100 -0.02650 
0.04250 0.11850 -0.06700 
0.10200 0.08250 -0.10100 
0.02850 0.07650 0.03000 
-0.01100 0.08250 -0.02700 
0.07800 0.06850 0.02200 
0.06200 0.12550 -0.14200 
0.05500 0.08500 -0.05100 
0.04550 0.09000 0.03000 
0.03200 0.06400 -0.00900 
0.07300 0.11200 -0.14000 
0.04400 0.08250 0.02100 
0.05950 0.09000 -0.06000 
0.07150 0.07000 -0.14400 
0.08400 0.05900 -0.07650 
0.02100 0.02600 -0.06300 
0.05050 0.03800 -0.03200 
0.07350 0.16450 -0.03200 
0.01900 0.02600 -0.00550 
0.03750 0.09250 -0.02250 
-0.00800 0.17400 -0.02800 
0.02200 0.07950 -0.03600 
0.08500 0.10950 0.10900 
0.04650 0.10650 -0.01350 
0.07150 0.12950 0.03950 
0.03600 0.06650 0.04500 
-0.05150 0.02600 -0.02300 
-0.00550 0.09250 0.05100 
0.09050 0.10750 -0.01300 
0.08550 0.12300 -0.02200 
0.04550 0.09100 -0.11750 
-0.00300 0.07400 -0.01900 
0.08300 0.11900 -0.02900 
0.08550 0.10200 -0.07850 
0.01400 0.05350 0.04900 
0.02650 0.09250 -0.02750 
0.04550 0.11150 -0.10800 
0.10200 0.11950 0.07500 
0.00850 0.02100 0.00150 
-0.01400 0.11950 -0.07350 
0.06850 0.08650 -0.09650 
0.05600 0.09900 0.03000 
0.06450 0.03100 -0.01350 
0.13050 0.10100 -0.13550 
-0.07950 0.06000 -0.04500 
0.06700 0.15400 0.04250 
0.12000 0.14500 -0.00900 
0.05850 0.13800 0.01050 
0.01500 0.02850 -0.02900 
0.06000 0.03700 -0.08750 
0.00400 0.05050 -0.01300 
0.03700 -0.03200 -0.02600 
0.07800 0.11550 -0.16800 
0.03150 0.02900 -0.18250 
0.03800 0.00300 0.04300 
0.16350 -0.07550 -0.02550 
0.07750 0.08950 -0.09000 
0.03200 0.09000 -0.06000 
0.05150 0.07150 -0.02900 
0.07100 0.11200 -0.12050 
0.02950 0.13050 -0.04350 
-0.01250 0.07300 -0.07300 
0.07000 0.07400 -0.06050 
0.11550 0.10000 -0.14550 
0.16050 0.06900 0.01850 
0.11400 0.04950 -0.00350 
0.01700 0.07000 0.06400 
-0.00400 0.08050 -0.01800 
-0.08400 0.00650 -0.06150 
0.12600 0.08050 -0.03200 
-0.01400 -0.06600 0.06200 
0.02800 0.11350 -0.10500 
0.08200 0.05350 -0.08450 
-0.06500 0.02100 -0.10350 
0.03950 0.10650 -0.04800 
0.00350 0.05650 -0.00500 
0.07550 0.15000 -0.04700 
0.06000 0.02900 -0.08150 
0.01750 0.09900 -0.03650 
0.02050 0.17550 -0.00450 
0.03250 -0.04800 0.04400 
-0.00900 0.05050 0.03250 
0.03650 0.07150 0.02750 
0.10600 0.06650 -0.01000 
0.07650 0.07050 0.06000 
0.11050 0.05850 -0.13400 
-0.02050 -0.10550 0.00550 
0.11150 0.13550 -0.05050 
0.07800 0.07650 -0.10250 
-0.02100 0.03800 0.03150 
0.10500 0.09350 -0.09300 
0.04300 0.04200 0.02850 
0.12300 0.00900 -0.09800 
0.06200 0.08250 -0.06700 
0.06200 0.01400 -0.02350 
0.07700 0.04250 -0.04350 
0.01050 -0.00050 -0.02200 
0.05700 0.03650 -0.05100 
0.13800 0.04150 -0.08800 
0.06650 0.02700 -0.02300 
0.02050 0.02000 -0.02750 
-0.03200 0.07300 -0.04400 
0.10350 0.08850 -0.06700 
0.07150 0.11000 -0.11650 
0.02350 0.04650 -0.13550 
0.03500 0.09200 -0.12450 
0.00350 0.04000 0.04400 
0.08100 0.12350 0.03550 
0.07050 0.09200 0.13800 
-0.00350 0.05250 -0.01800 
0.09350 0.08150 -0.10700 
0.08250 0.01050 0.07950 
-0.00150 0.03800 0.02100 
0.06850 0.08850 -0.08450 
0.00800 0.09000 -0.01000 
0.07800 0.09500 0.01400 
0.01400 0.00250 -0.06850 
0.07800 0.10050 -0.07200 
-0.00050 0.03550 -0.08600 
0.11900 0.06400 -0.05900 
0.07700 0.12100 -0.05100 
0.05600 0.08700 0.08600 
0.03450 0.05700 -0.05450 
0.02100 -0.02800 0.02150 
0.06800 0.15300 0.04150 
-0.01250 0.07200 -0.03100 
0.04400 0.06250 0.03100 
0.08150 0.04400 0.00800 
0.11800 0.06900 0.06050 
0.00800 0.09450 0.02500 
0.07650 0.09600 -0.03800 
0.06250 0.12800 -0.00700 
0.06050 0.02600 -0.02500 
-0.01400 0.10100 -0.09600 
-0.01600 0.10050 0.01450 
0.03900 0.02000 -0.15350 
-0.03350 0.06300 0.04850 
0.01750 0.04100 0.03150 
0.06450 0.02600 0.00050 
0.02000 0.07050 0.03950 
0.06600 0.06200 -0.11400 
-0.00600 0.08950 0.08800 
0.07550 0.01550 -0.13750 
0.02900 0.07900 0.01800 
0.03250 0.05550 -0.05850 
0.05750 0.10150 0.03050 
0.02800 0.01100 -0.05950 
0.05400 -0.01200 -0.11850 
0.02800 0.10100 -0.02450 
0.00100 0.05750 0.03700 
0.03350 0.15000 0.08450 
0.04600 0.02450 -0.01050 
-0.01950 0.11850 -0.03900 
-0.02150 0.17950 0.00700 
-0.02550 0.11050 -0.07350 
0.01050 0.08500 -0.08550 
0.00650 0.10700 -0.00450 
0.01350 0.11450 0.03250 
0.05700 0.03900 0.00200 
-0.10350 -0.03350 -0.05200 
-0.00900 0.08350 -0.07150 
0.11250 0.14150 -0.13950 
0.07950 0.15900 -0.11600 
0.08450 0.11900 0.03400 
0.02050 0.16150 -0.03000 
0.07900 0.07700 -0.14100 
0.01750 0.12950 0.10700 
0.03950 0.15800 -0.03050 
-0.03850 0.05200 0.00550 
0.03950 0.03350 0.00950 
0.01950 0.16250 -0.09000 
0.04350 0.13350 -0.09000 
0.06700 0.15750 -0.07150 
0.01400 0.09700 0.01650 
0.08100 0.11950 -0.06100 
0.05300 0.04250 0.08650 
0.01700 0.11000 0.02150 
0.01150 0.08850 -0.04100 
0.02300 0.05000 -0.02250 
-0.02500 0.04350 -0.00350 
0.00250 0.12150 -0.02900 
0.03750 0.06350 0.01000 
0.14100 0.01550 0.05450 
0.05000 0.10350 0.06700 
0.06500 0.08100 -0.07400 
0.08450 0.12250 0.01150 
0.02100 0.03200 0.08300 
0.00850 0.18800 -0.05200 
0.01450 0.02150 -0.03300 
0.13550 0.11600 0.02250 
-0.01350 0.05950 -0.12650 
-0.00650 0.13450 -0.03850 
0.07250 0.08600 -0.11550 
-0.00700 0.08600 0.00550 
0.09400 0.10300 -0.09500 
-0.06350 0.08100 0.04200 
0.00150 0.08700 -0.02750 
0.06100 0.04650 -0.00500 
0.05250 0.06450 0.02350 
0.12400 0.11150 0.00050 
0.05800 0.04350 -0.14300 
0.07500 0.16150 -0.02650 
0.05300 0.03500 -0.01000 
0.11100 0.12700 0.05700 
0.04550 0.00700 -0.01050 
0.03000 0.03850 -0.06350 
0.07500 0.07100 -0.07200 
0.00050 0.05250 -0.00550 
0.12350 0.06800 -0.03850 
-0.00350 0.13200 0.09400 
0.03750 0.05850 -0.10000 
0.01850 0.03000 0.03300 
0.16200 0.09500 -0.08750 
-0.00650 0.12050 -0.06800 
0.08350 0.02400 -0.04300 
0.04100 0.08200 -0.04650 
-0.02850 0.00550 -0.08700 
-0.02000 0.12850 -0.22000 