# vtk DataFile Version 2.0 
Xm, Ym, Zm, Uvecs, timestep 10173 
ASCII 
 
DATASET POLYDATA POINTS 432 float 
  1.696   5.912 -70.365 
  2.973   9.275 -73.870 
  6.364   0.517 -72.948 
 -1.412  -9.957 -71.732 
  3.562   2.609 -73.301 
  7.305  -1.910 -70.736 
  2.514   5.492 -70.017 
-10.397   3.720 -69.472 
  3.323  10.622 -75.044 
  3.317   4.748 -68.657 
  3.412  -5.350 -67.176 
 -8.902   4.592 -72.341 
 13.180   2.482 -72.356 
  4.293  10.461 -67.571 
  1.904  -3.936 -66.730 
 -6.515   3.526 -72.100 
  7.350   3.822 -69.330 
  9.686   2.792 -72.631 
  7.317  -0.624 -69.766 
 -5.749   4.221 -66.511 
 10.873   6.220 -71.709 
  3.247   4.327 -67.249 
  4.218   2.366 -68.738 
 10.996  -6.906 -66.746 
 -0.064   1.552 -72.747 
  0.249   4.091 -68.127 
 -3.325   9.751 -68.018 
  1.597  -4.992 -69.470 
 -3.862  11.322 -71.375 
  5.668  -6.899 -67.615 
  9.499  -0.646 -68.888 
 11.607  -0.180 -70.019 
  1.896   0.675 -70.156 
 -7.606   5.651 -69.688 
  3.878   6.845 -69.227 
 -4.537   3.168 -63.870 
 -3.542   2.708 -64.110 
  3.580   7.780 -68.593 
  5.181  -1.405 -65.174 
 -0.839  10.997 -72.557 
  0.464  -1.395 -74.324 
 -8.374   2.824 -71.790 
 -2.140   4.775 -72.780 
 -4.614   6.311 -65.445 
 -5.087   6.535 -65.454 
 -3.067   2.450 -66.930 
 -4.898   4.317 -66.588 
  9.915   8.114 -69.254 
  3.836   7.797 -70.267 
 -7.947   7.681 -62.980 
  1.104   2.058 -71.951 
 -3.530   5.609 -70.165 
  8.492 -12.082 -69.235 
 -0.738   6.245 -63.141 
  0.364  -5.465 -66.328 
 -5.430   0.131 -67.209 
 -8.512   8.154 -73.566 
 10.973   3.168 -68.223 
 15.656   8.860 -67.751 
 -7.976  -2.069 -64.820 
-11.116  -2.880 -66.833 
  0.929   8.942 -70.138 
  2.659 -11.184 -67.899 
  5.104   6.283 -68.311 
 -2.951  -2.952 -63.047 
  6.555  -6.401 -69.409 
  1.833  -4.515 -65.069 
 -2.110  11.717 -71.373 
  8.246  -7.739 -71.612 
  8.029   1.369 -63.501 
  6.726 -10.082 -74.075 
-12.153   3.814 -68.935 
  9.376  10.529 -70.238 
 -5.406  10.430 -66.390 
 11.424   3.038 -70.260 
 -7.036  -2.739 -64.150 
  6.821  12.216 -68.335 
  4.581  -1.616 -72.615 
 -1.406  -3.186 -61.178 
 -2.040 -10.422 -66.879 
  2.902   9.542 -65.275 
  3.419  -0.984 -64.944 
  0.873   6.457 -71.392 
 -7.257   6.793 -69.993 
  5.300  -6.452 -62.231 
 -7.316  -1.975 -64.228 
 17.572  -2.728 -69.132 
 13.646   5.079 -70.267 
-11.250   8.387 -69.869 
  5.678  -8.869 -62.807 
 -2.577   8.904 -72.546 
  2.075   7.350 -69.048 
-12.861  -7.250 -69.381 
  2.289  10.967 -67.602 
 -0.715  -9.162 -70.659 
 -1.466  -9.311 -69.858 
-11.116  -8.220 -66.829 
 -8.769   1.878 -62.249 
  1.504  -8.958 -70.227 
 -6.329   6.960 -73.212 
  1.558  -8.671 -65.276 
 -1.285   0.016 -62.014 
  3.064  -7.152 -68.770 
-13.314  -7.585 -68.875 
 12.028 -10.660 -72.639 
  0.483   6.533 -65.621 
  9.097   9.692 -69.730 
  1.424   0.033 -62.254 
  0.138  -4.332 -66.861 
  1.709   6.773 -68.724 
 11.509   1.567 -70.302 
  4.159  -9.460 -68.602 
  7.173   2.408 -63.031 
  7.861   7.117 -64.542 
  0.639   3.406 -57.266 
 -6.282  -2.727 -62.891 
 11.931   3.559 -68.378 
  7.598  11.077 -67.733 
-13.477  -1.196 -70.552 
  2.904  -2.447 -74.065 
 -3.554   2.167 -63.371 
  6.213   0.831 -69.094 
  4.579  -9.450 -64.974 
 -7.774   6.922 -69.172 
 -1.264   5.803 -67.746 
  6.181 -12.203 -65.876 
  3.125   6.056 -64.471 
  9.968  -7.207 -74.569 
  2.528  -5.486 -71.668 
 -4.069 -11.316 -72.249 
  5.530  -3.324 -67.695 
  4.175   3.095 -66.916 
  9.585  -2.958 -72.094 
 -2.109  11.431 -65.629 
 11.620  -4.885 -66.671 
  7.538   0.604 -72.481 
 14.452   1.777 -70.014 
 -7.404 -10.211 -67.136 
 -9.744  -9.959 -66.156 
 -4.620  -0.218 -74.347 
-10.765  11.520 -71.403 
  7.399 -12.764 -68.952 
 -9.543  11.596 -70.380 
 13.432 -12.632 -73.859 
 11.985 -10.265 -68.877 
 12.029  10.509 -66.132 
 11.922   9.884 -63.886 
 -1.999   7.358 -71.312 
  1.295  -0.444 -61.236 
 11.311   4.832 -66.348 
 15.131   8.639 -69.264 
 -7.203   8.992 -69.570 
  0.571   7.847 -74.770 
 -2.646   6.461 -64.439 
-11.014  -8.881 -65.972 
 14.090   5.098 -63.160 
-13.235   2.914 -69.645 
 -4.710  -7.082 -68.168 
 -6.464  -5.607 -65.680 
 15.249  -4.343 -68.642 
  8.168  -4.361 -71.097 
-12.751  11.572 -75.828 
 -0.587   8.963 -70.403 
 -3.894  -8.038 -69.975 
  8.914  -0.393 -69.448 
  3.774   0.383 -60.710 
  5.282  12.145 -67.544 
 -2.959 -10.107 -65.044 
 14.620  -8.983 -70.489 
-14.706  -6.700 -69.032 
  5.197   4.896 -63.654 
  3.939  -7.061 -70.923 
 -0.584   2.691 -65.916 
  5.374  -0.990 -67.649 
  6.766   4.939 -63.806 
-12.797   8.973 -68.767 
 -8.120  -6.880 -66.322 
  4.357  -7.683 -69.659 
  7.493   2.143 -62.982 
 17.505   8.797 -71.009 
  8.573 -10.025 -69.731 
 -5.105  10.959 -74.193 
-13.441  -6.790 -76.191 
  3.692   5.833 -77.609 
  9.224  11.646 -65.538 
 12.922  10.363 -71.566 
  5.290  12.366 -61.894 
 -1.263  -1.141 -73.329 
  5.619   7.106 -62.596 
 -4.740  -7.484 -70.269 
  9.126   7.316 -72.840 
 -4.194 -10.635 -69.495 
 -6.042  -7.996 -73.677 
-10.399  11.367 -65.462 
  4.495  -3.192 -71.427 
  4.267   2.678 -62.174 
 -7.702   9.611 -63.495 
 13.090  -2.582 -59.703 
-12.740  -2.731 -63.362 
 14.543   8.079 -69.332 
 -0.370   1.853 -64.254 
  5.837  -0.710 -63.276 
 -5.380 -11.718 -71.194 
 14.945  -2.506 -72.941 
 -2.506   3.090 -61.653 
 -1.745  -1.252 -63.856 
 11.843  12.081 -61.806 
 12.378  -4.008 -72.016 
 -7.781 -10.948 -73.820 
-12.480  10.410 -73.533 
 -4.052  -9.652 -63.626 
 -7.486  -2.136 -76.381 
  8.145   8.244 -71.015 
  3.364  -5.551 -70.127 
 10.958 -10.608 -72.904 
  7.665   7.556 -67.231 
 -5.497 -12.186 -64.921 
  0.676   6.325 -69.207 
 13.030   7.939 -67.544 
 -2.678  -9.827 -68.645 
 -4.184  -9.056 -68.198 
 12.300   8.863 -66.293 
-11.637  12.627 -68.496 
-12.558 -12.227 -65.346 
  2.931  -5.446 -76.095 
  7.951  -9.339 -63.556 
  7.234  -5.986 -68.703 
  7.581   5.265 -71.838 
-11.486   7.625 -67.556 
-10.853  12.284 -68.058 
  4.229  -1.129 -61.099 
  5.428  11.017 -64.268 
 12.442   2.534 -66.227 
 -8.513  -0.915 -75.212 
 16.083   8.286 -68.904 
 14.436  -7.844 -70.548 
 -9.068  12.620 -67.773 
  8.031   4.213 -62.793 
  5.205  -0.656 -62.654 
 12.195  -8.618 -70.657 
  6.937  -1.845 -70.840 
  7.164  -8.881 -71.418 
-12.185   1.715 -69.734 
 -0.198   5.021 -59.859 
  5.592   1.992 -62.829 
  8.567  10.973 -65.815 
 12.294   3.950 -64.591 
 12.692  -6.635 -71.729 
  2.294  -5.901 -69.959 
  6.801   3.324 -73.763 
 -6.229   1.063 -64.407 
  9.701 -11.482 -69.596 
 -5.590 -10.472 -70.651 
  8.898   2.117 -71.616 
  5.271   1.796 -73.539 
  6.043  -4.255 -65.494 
 13.875   0.879 -59.373 
 10.427  10.597 -69.809 
 -0.282   0.291 -70.920 
  0.034   4.057 -65.472 
 -9.883  -1.034 -65.176 
 -5.037   2.522 -64.338 
  1.076   6.706 -68.758 
 -2.308  -0.760 -70.347 
 -2.465  -4.755 -71.577 
 15.275   9.855 -72.810 
 -2.601  -2.241 -73.204 
  5.805  -6.383 -65.416 
 -8.064  -2.953 -75.568 
 12.006  -9.401 -64.633 
 12.098  -5.073 -71.118 
-12.820   4.385 -73.311 
  8.759   9.517 -66.833 
 17.496  -9.473 -69.403 
 -6.277   9.855 -71.709 
 11.547  -3.527 -65.873 
 -5.001  -2.168 -62.934 
 13.922   4.775 -71.153 
 10.564  -8.423 -61.462 
 16.515   7.069 -73.709 
-11.804   2.468 -76.341 
 -7.213  -4.197 -65.577 
  7.454  11.604 -69.877 
  3.663   3.117 -69.728 
 10.906   1.767 -56.767 
-12.192  -4.867 -64.199 
  6.189  -7.133 -62.347 
  5.064  -9.881 -73.029 
 11.247   0.396 -62.677 
 14.083  -5.713 -68.263 
 -5.226  -8.674 -69.401 
  8.485  10.793 -76.638 
  1.291 -12.943 -63.204 
  6.069   6.005 -69.751 
 -9.515   1.235 -76.470 
  6.575  -6.016 -67.751 
 -4.345  12.266 -73.123 
-11.999  10.723 -63.337 
  7.257  -4.304 -62.825 
 -1.604   4.852 -60.500 
 16.470 -11.857 -69.434 
 -4.289   4.391 -63.082 
  1.011  -4.685 -75.364 
  2.646   2.798 -66.903 
 17.090  -4.255 -73.956 
 -0.026  -9.587 -71.397 
  6.274   8.644 -65.695 
 -8.973  10.427 -72.844 
 -9.531   9.226 -67.284 
  1.725  -5.669 -64.561 
 -0.078  -7.265 -64.087 
 -2.185   3.245 -75.612 
  5.181  -1.533 -62.577 
  5.484  -7.646 -70.799 
  7.082   6.392 -69.066 
 -0.244  -3.306 -64.608 
  2.603   9.761 -71.481 
  8.062 -10.488 -63.383 
 -1.825   1.194 -68.446 
 -6.551  10.235 -76.865 
  3.785 -12.874 -66.566 
  1.843   6.256 -67.290 
 -8.925   7.749 -74.017 
 13.904   1.266 -73.719 
  5.816  -3.716 -73.881 
 -9.652   2.604 -72.866 
 -9.113   1.159 -66.834 
  0.913  -6.906 -69.715 
  0.383  -2.632 -63.013 
  7.960   5.915 -75.382 
  0.373   8.887 -76.950 
 -9.954  -8.618 -61.526 
 -0.110  13.372 -62.663 
  2.045  -3.269 -71.475 
  1.637 -10.892 -69.220 
 -8.936  -0.333 -63.641 
 -1.620  -5.483 -70.632 
  0.424  -7.950 -69.757 
-12.619   4.610 -70.882 
 -5.789   2.817 -58.737 
  2.340  -2.084 -72.659 
  9.428   8.982 -59.502 
 11.906  -0.508 -62.355 
  1.621  -1.239 -64.032 
 -0.094   2.792 -66.461 
-12.538 -12.016 -74.679 
 16.996  -8.081 -67.957 
-10.977   3.643 -62.269 
  4.887   7.451 -74.989 
  2.844  -0.615 -77.532 
 14.955   7.133 -71.516 
 16.533  -3.594 -71.810 
  9.140 -11.719 -69.779 
  5.698  11.758 -60.388 
  1.183  -8.614 -65.833 
 -2.695  10.583 -61.319 
  8.227  -5.754 -59.237 
 -8.216  -6.229 -75.954 
  5.870  -2.220 -63.063 
 15.178   5.885 -69.789 
  1.530  -5.083 -70.918 
  2.178   1.471 -63.743 
-12.417 -10.384 -62.102 
 11.781   3.874 -75.367 
  6.482  -5.820 -71.210 
 -8.436   3.856 -68.696 
  6.422  -5.990 -64.688 
-12.511   7.451 -72.029 
 -8.726   3.582 -61.341 
  6.137  12.400 -63.329 
 13.845  10.471 -69.522 
 -4.220  -4.389 -77.209 
  9.027   7.831 -62.485 
  0.329  10.479 -75.419 
-10.314   7.481 -71.558 
 16.098   1.085 -65.531 
  1.341  -4.123 -71.730 
 13.717  -0.510 -70.917 
 13.752 -12.931 -65.806 
 -0.424   7.577 -63.729 
 -8.916  -5.495 -74.354 
 -1.117 -10.949 -69.367 
 14.927   4.510 -67.392 
 -6.251   6.165 -65.114 
 -1.998   5.045 -76.626 
 14.886   0.100 -64.876 
  9.427 -12.568 -66.146 
  3.610  -2.197 -75.242 
  2.872  -4.018 -62.328 
 -8.607  -1.597 -59.050 
 -2.904   6.919 -67.439 
-10.283   4.093 -61.692 
 -9.674   8.480 -64.795 
  8.521  -6.736 -59.630 
 14.940  11.864 -72.108 
-11.578   4.447 -77.017 
  0.790 -10.042 -75.301 
-10.712  -7.063 -74.149 
 11.269 -12.985 -64.126 
 13.089  -3.486 -67.525 
  9.488   2.099 -70.154 
 16.026  12.951 -65.868 
 15.682   3.200 -64.317 
 -9.640   0.416 -56.877 
 -8.672   1.264 -75.781 
 10.256   7.495 -71.082 
  4.594   9.094 -66.542 
 -7.667   5.987 -67.144 
 13.055 -13.289 -64.272 
  0.277   3.483 -74.478 
 -1.914  -6.239 -70.001 
 -1.610 -10.203 -68.281 
  6.815   5.883 -68.933 
 -3.361   2.026 -62.972 
-11.035  10.968 -75.288 
 -4.220  -4.125 -66.179 
-10.220  13.306 -64.152 
 15.714   8.426 -74.731 
 13.310   1.430 -72.680 
-10.502  -9.459 -70.516 
-11.215 -11.680 -64.475 
 -6.196  11.428 -65.019 
-12.332  -4.175 -76.847 
  8.461   7.438 -65.882 
 -4.266   4.861 -69.487 
 11.332  -7.618 -70.579 
 -0.164  -7.204 -74.743 
 16.485  -7.697 -70.567 
 15.015 -12.413 -66.248 
  6.326   6.322 -70.688 
-12.134  11.826 -73.547 
 -1.563   4.224 -70.186 

 VERTICES 432 864 
1 0 
1 1 
1 2 
1 3 
1 4 
1 5 
1 6 
1 7 
1 8 
1 9 
1 10 
1 11 
1 12 
1 13 
1 14 
1 15 
1 16 
1 17 
1 18 
1 19 
1 20 
1 21 
1 22 
1 23 
1 24 
1 25 
1 26 
1 27 
1 28 
1 29 
1 30 
1 31 
1 32 
1 33 
1 34 
1 35 
1 36 
1 37 
1 38 
1 39 
1 40 
1 41 
1 42 
1 43 
1 44 
1 45 
1 46 
1 47 
1 48 
1 49 
1 50 
1 51 
1 52 
1 53 
1 54 
1 55 
1 56 
1 57 
1 58 
1 59 
1 60 
1 61 
1 62 
1 63 
1 64 
1 65 
1 66 
1 67 
1 68 
1 69 
1 70 
1 71 
1 72 
1 73 
1 74 
1 75 
1 76 
1 77 
1 78 
1 79 
1 80 
1 81 
1 82 
1 83 
1 84 
1 85 
1 86 
1 87 
1 88 
1 89 
1 90 
1 91 
1 92 
1 93 
1 94 
1 95 
1 96 
1 97 
1 98 
1 99 
1 100 
1 101 
1 102 
1 103 
1 104 
1 105 
1 106 
1 107 
1 108 
1 109 
1 110 
1 111 
1 112 
1 113 
1 114 
1 115 
1 116 
1 117 
1 118 
1 119 
1 120 
1 121 
1 122 
1 123 
1 124 
1 125 
1 126 
1 127 
1 128 
1 129 
1 130 
1 131 
1 132 
1 133 
1 134 
1 135 
1 136 
1 137 
1 138 
1 139 
1 140 
1 141 
1 142 
1 143 
1 144 
1 145 
1 146 
1 147 
1 148 
1 149 
1 150 
1 151 
1 152 
1 153 
1 154 
1 155 
1 156 
1 157 
1 158 
1 159 
1 160 
1 161 
1 162 
1 163 
1 164 
1 165 
1 166 
1 167 
1 168 
1 169 
1 170 
1 171 
1 172 
1 173 
1 174 
1 175 
1 176 
1 177 
1 178 
1 179 
1 180 
1 181 
1 182 
1 183 
1 184 
1 185 
1 186 
1 187 
1 188 
1 189 
1 190 
1 191 
1 192 
1 193 
1 194 
1 195 
1 196 
1 197 
1 198 
1 199 
1 200 
1 201 
1 202 
1 203 
1 204 
1 205 
1 206 
1 207 
1 208 
1 209 
1 210 
1 211 
1 212 
1 213 
1 214 
1 215 
1 216 
1 217 
1 218 
1 219 
1 220 
1 221 
1 222 
1 223 
1 224 
1 225 
1 226 
1 227 
1 228 
1 229 
1 230 
1 231 
1 232 
1 233 
1 234 
1 235 
1 236 
1 237 
1 238 
1 239 
1 240 
1 241 
1 242 
1 243 
1 244 
1 245 
1 246 
1 247 
1 248 
1 249 
1 250 
1 251 
1 252 
1 253 
1 254 
1 255 
1 256 
1 257 
1 258 
1 259 
1 260 
1 261 
1 262 
1 263 
1 264 
1 265 
1 266 
1 267 
1 268 
1 269 
1 270 
1 271 
1 272 
1 273 
1 274 
1 275 
1 276 
1 277 
1 278 
1 279 
1 280 
1 281 
1 282 
1 283 
1 284 
1 285 
1 286 
1 287 
1 288 
1 289 
1 290 
1 291 
1 292 
1 293 
1 294 
1 295 
1 296 
1 297 
1 298 
1 299 
1 300 
1 301 
1 302 
1 303 
1 304 
1 305 
1 306 
1 307 
1 308 
1 309 
1 310 
1 311 
1 312 
1 313 
1 314 
1 315 
1 316 
1 317 
1 318 
1 319 
1 320 
1 321 
1 322 
1 323 
1 324 
1 325 
1 326 
1 327 
1 328 
1 329 
1 330 
1 331 
1 332 
1 333 
1 334 
1 335 
1 336 
1 337 
1 338 
1 339 
1 340 
1 341 
1 342 
1 343 
1 344 
1 345 
1 346 
1 347 
1 348 
1 349 
1 350 
1 351 
1 352 
1 353 
1 354 
1 355 
1 356 
1 357 
1 358 
1 359 
1 360 
1 361 
1 362 
1 363 
1 364 
1 365 
1 366 
1 367 
1 368 
1 369 
1 370 
1 371 
1 372 
1 373 
1 374 
1 375 
1 376 
1 377 
1 378 
1 379 
1 380 
1 381 
1 382 
1 383 
1 384 
1 385 
1 386 
1 387 
1 388 
1 389 
1 390 
1 391 
1 392 
1 393 
1 394 
1 395 
1 396 
1 397 
1 398 
1 399 
1 400 
1 401 
1 402 
1 403 
1 404 
1 405 
1 406 
1 407 
1 408 
1 409 
1 410 
1 411 
1 412 
1 413 
1 414 
1 415 
1 416 
1 417 
1 418 
1 419 
1 420 
1 421 
1 422 
1 423 
1 424 
1 425 
1 426 
1 427 
1 428 
1 429 
1 430 
1 431 
POINT_DATA 432 
SCALARS MeanU double 1 
LOOKUP_TABLE default
0.08695 
0.13291 
0.24128 
0.13187 
0.20197 
0.10720 
0.10180 
0.12919 
0.14459 
0.10368 
0.29717 
0.20115 
0.17406 
0.07248 
0.20208 
0.11653 
0.14723 
0.14341 
0.16335 
0.17729 
0.14498 
0.14547 
0.08674 
0.16717 
0.18101 
0.08750 
0.11643 
0.20416 
0.16073 
0.16836 
0.26220 
0.27034 
0.31006 
0.08562 
0.07247 
0.12073 
0.12430 
0.07041 
0.19138 
0.18879 
0.21326 
0.13929 
0.18609 
0.15564 
0.13400 
0.16306 
0.16493 
0.08939 
0.06090 
0.16607 
0.22617 
0.12228 
0.07363 
0.08404 
0.11895 
0.22702 
0.14089 
0.09803 
0.19307 
0.21970 
0.09552 
0.05322 
0.12592 
0.12712 
0.19178 
0.08675 
0.18754 
0.21262 
0.11779 
0.08020 
0.10272 
0.12213 
0.12715 
0.11763 
0.06984 
0.25038 
0.21926 
0.17538 
0.20304 
0.18289 
0.02897 
0.07632 
0.13302 
0.14527 
0.09906 
0.23086 
0.10458 
0.12152 
0.10946 
0.13075 
0.15510 
0.05577 
0.15470 
0.16041 
0.11433 
0.06719 
0.11079 
0.20636 
0.27083 
0.15896 
0.12887 
0.17814 
0.22227 
0.19159 
0.08488 
0.09558 
0.13441 
0.05704 
0.22625 
0.08977 
0.17133 
0.22384 
0.07541 
0.06637 
0.05110 
0.21619 
0.04767 
0.13985 
0.14106 
0.20789 
0.16026 
0.14232 
0.07251 
0.09241 
0.13065 
0.11761 
0.16797 
0.16830 
0.20705 
0.13350 
0.26588 
0.14530 
0.24077 
0.29774 
0.26699 
0.11477 
0.21914 
0.13373 
0.14741 
0.23489 
0.10407 
0.10348 
0.14835 
0.10787 
0.07319 
0.04968 
0.10929 
0.15935 
0.04066 
0.04921 
0.13479 
0.14249 
0.15964 
0.18115 
0.09308 
0.12057 
0.17850 
0.17738 
0.24517 
0.10631 
0.28691 
0.22060 
0.11562 
0.04139 
0.18300 
0.12999 
0.12697 
0.14529 
0.06607 
0.11954 
0.11260 
0.07475 
0.19030 
0.11192 
0.08345 
0.15143 
0.11559 
0.21263 
0.05383 
0.19284 
0.04585 
0.20986 
0.14965 
0.18129 
0.11927 
0.16989 
0.17767 
0.14911 
0.06413 
0.09222 
0.16169 
0.10293 
0.20505 
0.06956 
0.21007 
0.16462 
0.14767 
0.17594 
0.17851 
0.14632 
0.21266 
0.21393 
0.13650 
0.29418 
0.16468 
0.25017 
0.09980 
0.11571 
0.11188 
0.22842 
0.07811 
0.09776 
0.13128 
0.21223 
0.06897 
0.14080 
0.13846 
0.11895 
0.13992 
0.16532 
0.15510 
0.04591 
0.16689 
0.09441 
0.07451 
0.08852 
0.15494 
0.18983 
0.32998 
0.08414 
0.19361 
0.08127 
0.08780 
0.06535 
0.19563 
0.07216 
0.10308 
0.13253 
0.22386 
0.15747 
0.11126 
0.10926 
0.15208 
0.02466 
0.10439 
0.17878 
0.06115 
0.12893 
0.27160 
0.22759 
0.11936 
0.14470 
0.11338 
0.11219 
0.15637 
0.18121 
0.13093 
0.09480 
0.24177 
0.14002 
0.19270 
0.07309 
0.08626 
0.24520 
0.10374 
0.13135 
0.18337 
0.12668 
0.06295 
0.10764 
0.24669 
0.17794 
0.16007 
0.09692 
0.17280 
0.24373 
0.13260 
0.15930 
0.08311 
0.26537 
0.24729 
0.20902 
0.12804 
0.13762 
0.10708 
0.12336 
0.07801 
0.10753 
0.25803 
0.23318 
0.13535 
0.17589 
0.10918 
0.17200 
0.15226 
0.14530 
0.16438 
0.06044 
0.28293 
0.21397 
0.09821 
0.16772 
0.09488 
0.14475 
0.32070 
0.06514 
0.12003 
0.10097 
0.05915 
0.24339 
0.23215 
0.17829 
0.24717 
0.12700 
0.22639 
0.20643 
0.03536 
0.03588 
0.18930 
0.15374 
0.07587 
0.09540 
0.21815 
0.24170 
0.20239 
0.19309 
0.19506 
0.36479 
0.09763 
0.27330 
0.07970 
0.16108 
0.14546 
0.21024 
0.23956 
0.20508 
0.20910 
0.21730 
0.19185 
0.05548 
0.20646 
0.10834 
0.16038 
0.16240 
0.21749 
0.14775 
0.06985 
0.14109 
0.17854 
0.12820 
0.22081 
0.12554 
0.09569 
0.16556 
0.07947 
0.07751 
0.26529 
0.11562 
0.25534 
0.16695 
0.16582 
0.17668 
0.24866 
0.16945 
0.16737 
0.14856 
0.13117 
0.14526 
0.17517 
0.19221 
0.14657 
0.11709 
0.07061 
0.14079 
0.10673 
0.18351 
0.22883 
0.32580 
0.06478 
0.11231 
0.22703 
0.16934 
0.12116 
0.15742 
0.21312 
0.13094 
0.04415 
0.23247 
0.18517 
0.22791 
0.13728 
0.13346 
0.09677 
0.18849 
0.22260 
0.10312 
0.16745 
0.16102 
0.06973 
0.26988 
0.07274 
0.13606 
0.15970 
0.10287 
0.14047 
0.15813 
0.10300 
0.25396 
0.07611 
0.15197 
0.16096 
0.16178 
0.20118 
0.21022 
0.18683 
0.19903 
0.11731 
0.19605 
0.24049 
0.19815 
0.19961 
0.11521 
0.17419 
0.06989 
0.17302 
0.28427 
0.14130 
0.08545 
0.08425 
0.16851 
0.16086 
0.05155 

 VECTORS Umean float 
-0.00250 -0.03150 -0.08100 
-0.06850 -0.07800 -0.08300 
0.15450 0.06900 -0.17200 
0.09200 0.09350 -0.01350 
0.12350 0.11250 -0.11350 
0.07450 0.00950 -0.07650 
0.03400 -0.01350 -0.09500 
0.05650 0.11500 0.01650 
-0.08800 -0.11250 -0.02250 
0.03750 -0.00550 -0.09650 
-0.04700 0.10500 -0.27400 
0.15750 0.09900 -0.07650 
-0.02300 0.11400 -0.12950 
-0.05350 -0.04700 0.01350 
-0.04000 -0.05600 -0.19000 
0.01300 0.06900 -0.09300 
0.02800 0.01250 -0.14400 
-0.07450 0.05400 -0.11000 
0.06300 -0.00800 -0.15050 
0.15700 0.07500 0.03400 
0.10000 -0.05800 -0.08750 
0.05950 0.01400 -0.13200 
-0.05150 -0.01050 -0.06900 
-0.12200 0.08400 -0.07750 
0.10700 0.11000 -0.09600 
0.00500 0.08400 -0.02400 
-0.11150 0.03350 -0.00150 
0.02350 0.02700 -0.20100 
-0.15600 0.03150 0.02250 
0.10200 0.12000 0.05950 
0.09900 0.02500 -0.24150 
0.09300 0.02600 -0.25250 
0.18900 -0.01200 -0.24550 
0.05400 0.05450 -0.03800 
-0.01000 -0.03150 -0.06450 
0.04550 0.09100 -0.06500 
0.04750 0.08950 -0.07200 
-0.03500 -0.05350 -0.02950 
0.06350 0.09000 -0.15650 
-0.17400 0.01050 -0.07250 
0.11650 0.09700 -0.15000 
0.10000 0.06550 -0.07150 
0.02800 0.11450 -0.14400 
0.09450 0.12350 0.00650 
0.05200 0.12350 -0.00050 
0.14650 0.06500 -0.03000 
0.12900 0.10050 -0.02150 
0.02200 -0.06250 -0.06000 
-0.01200 -0.05550 -0.02200 
0.04250 0.15850 -0.02550 
0.11700 0.10200 -0.16450 
0.08500 0.05750 -0.06650 
0.04600 0.05550 0.01500 
0.07850 -0.00550 0.02950 
-0.02500 0.05400 -0.10300 
0.14400 0.16650 -0.05550 
0.04150 0.06750 -0.11650 
0.03650 0.05150 -0.07500 
0.12950 0.14100 -0.02500 
0.07350 0.13200 -0.15950 
0.04300 0.04800 0.07050 
-0.03650 0.01550 -0.03550 
0.10200 -0.00700 -0.07350 
0.11150 -0.03200 -0.05200 
0.03200 0.04950 -0.18250 
0.02300 0.07400 0.03900 
0.06050 0.00200 -0.17750 
-0.20350 0.06100 -0.00850 
0.09000 0.05850 -0.04850 
0.00200 -0.02400 -0.07650 
0.07950 0.03550 -0.05450 
0.03650 0.11350 0.02650 
0.00600 -0.12550 -0.01950 
-0.09250 0.06000 -0.04100 
-0.05850 -0.00700 -0.03750 
0.05800 0.08700 -0.22750 
-0.14350 -0.16500 0.01600 
0.10150 0.09200 -0.10950 
0.01850 0.02200 -0.20100 
0.17500 0.03050 -0.04350 
0.00750 0.02100 0.01850 
0.03500 -0.01050 -0.06700 
-0.00550 -0.01550 -0.13200 
0.03000 0.09950 -0.10150 
-0.00150 0.08100 -0.05700 
0.00500 0.09900 -0.20850 
-0.04750 0.08750 -0.03200 
-0.00400 0.11000 -0.05150 
0.01900 0.09150 -0.05700 
-0.10200 0.03150 -0.07550 
0.03250 0.05050 -0.14300 
-0.01350 -0.02400 -0.04850 
0.02450 0.07050 -0.13550 
-0.15050 -0.03900 -0.03950 
0.06650 0.08900 0.02700 
0.00550 0.06450 0.01800 
0.01350 0.04350 -0.10100 
0.19300 0.07300 0.00250 
0.19200 -0.01400 -0.19050 
0.09500 0.11050 -0.06350 
-0.05550 0.02950 -0.11250 
0.07450 0.07850 -0.14150 
0.07350 0.01050 -0.20950 
0.03550 0.08400 -0.16850 
0.03250 0.06350 -0.04600 
0.00900 0.07800 -0.05450 
0.10900 -0.04200 0.06650 
0.01500 -0.01800 -0.05200 
-0.04250 0.06500 -0.21250 
-0.00600 -0.00350 -0.08950 
0.02050 0.06300 -0.15800 
0.14650 0.02050 -0.16800 
-0.06550 -0.03400 -0.01550 
0.05000 0.00350 -0.04350 
-0.03100 0.03950 -0.00950 
0.01900 0.07600 -0.20150 
-0.03750 0.00500 -0.02900 
-0.04450 -0.11100 0.07250 
0.13300 0.01650 -0.04400 
0.03500 0.08600 -0.18600 
0.09900 0.12550 -0.01150 
0.10150 0.07300 -0.06800 
-0.04300 0.04850 0.03250 
-0.00950 0.08500 -0.03500 
0.05900 0.01150 -0.11600 
0.07700 0.05000 0.07350 
0.02050 0.12700 -0.10800 
0.06050 -0.09100 -0.12800 
0.01900 0.02200 -0.20500 
0.12950 0.01550 -0.02850 
0.07600 0.06050 -0.24750 
-0.06350 -0.06300 -0.11450 
0.10350 -0.01300 -0.21700 
-0.16150 -0.04250 0.24650 
0.16550 -0.00200 -0.20950 
0.10900 0.01900 -0.03050 
0.08300 0.09050 -0.18150 
0.07600 0.04250 -0.10150 
0.00250 0.03950 -0.14200 
0.00050 0.15150 -0.17950 
-0.03300 0.05100 -0.08450 
0.05450 0.08750 -0.00900 
-0.02600 0.05450 -0.13550 
0.03200 -0.00200 -0.10300 
0.07200 0.01250 0.00400 
-0.00000 0.01750 -0.04650 
-0.07900 -0.07550 0.00200 
-0.00250 0.08300 -0.13600 
-0.01800 -0.02450 -0.02700 
-0.00950 0.02550 0.04100 
0.06500 0.08350 -0.08350 
-0.10300 0.00950 -0.09800 
0.04500 0.06100 -0.14050 
0.14300 0.10900 -0.02200 
0.01350 -0.02550 -0.08850 
-0.00750 0.09450 0.07450 
0.03700 0.14350 0.09950 
0.10750 0.06250 -0.12650 
0.02950 0.05750 -0.23650 
0.03650 0.01300 -0.09900 
0.11650 -0.03750 -0.25950 
0.03000 0.12750 -0.17750 
-0.08200 0.05350 -0.06150 
-0.00050 0.01950 -0.03650 
0.07600 0.06200 -0.15450 
0.04400 0.10200 -0.06750 
-0.04200 -0.11000 0.04750 
0.11800 0.02150 -0.08200 
0.00850 -0.02950 -0.05850 
0.04050 0.08150 -0.07750 
-0.08350 -0.05750 -0.04900 
0.05900 -0.00900 -0.04500 
0.16450 0.07200 -0.06300 
0.06150 0.00150 -0.09350 
-0.06250 0.01400 -0.05350 
0.12950 0.05000 -0.06050 
0.05550 0.01950 -0.09950 
0.17350 0.07550 -0.09700 
-0.02000 -0.01700 -0.04700 
0.16200 0.07950 -0.06800 
0.02550 0.03600 0.01250 
0.02100 0.16650 -0.12600 
0.08550 0.12150 -0.01800 
0.07900 0.07950 -0.14250 
-0.04550 -0.10650 0.02850 
0.05650 0.06600 -0.14600 
-0.03100 0.01250 0.17450 
0.07100 0.06900 -0.11150 
-0.02600 -0.05800 0.00850 
0.01450 0.08650 -0.02850 
0.10200 -0.04900 -0.11550 
0.09900 0.02800 -0.00300 
0.14200 0.12950 -0.07150 
0.06000 0.01350 0.03250 
0.07150 0.00350 -0.19750 
-0.05000 0.08700 -0.13050 
0.09300 0.09650 0.06200 
0.01200 -0.00350 -0.17550 
0.03800 0.08900 -0.15000 
0.09200 0.11350 -0.00800 
0.10800 0.13250 -0.12650 
0.09350 0.08000 -0.17500 
0.11000 0.07600 -0.02750 
0.12200 -0.01000 -0.26750 
0.06000 0.12000 -0.09550 
0.11100 0.04800 -0.21900 
0.00650 0.05350 -0.08400 
0.09850 -0.03050 -0.05250 
0.07750 0.03100 0.07450 
-0.03650 0.07950 -0.21100 
0.00400 -0.07700 -0.01250 
0.03750 0.04950 -0.07550 
0.08350 -0.04450 -0.09100 
0.11400 0.00200 -0.17900 
0.04500 0.01350 -0.05050 
0.10350 -0.09300 0.02150 
0.07650 0.04200 0.10750 
0.01300 -0.00750 -0.11800 
0.04400 0.11850 -0.06000 
0.15450 0.03400 0.04800 
0.12950 0.08450 -0.01200 
-0.02050 -0.00250 -0.04100 
0.03250 0.15250 -0.05950 
-0.02850 0.00950 0.08950 
0.04550 0.04750 -0.03500 
-0.08700 -0.01450 0.00750 
0.07350 0.13500 0.01950 
0.05200 0.11350 -0.14300 
0.23350 0.15850 0.17100 
-0.01600 0.04900 -0.06650 
0.04550 0.10600 -0.15550 
-0.00300 0.01400 0.08000 
0.03850 -0.05800 0.05350 
0.01400 0.04150 -0.04850 
0.13600 0.11800 -0.07650 
-0.01350 -0.03150 -0.06350 
-0.00900 0.06500 -0.07950 
-0.01150 0.04800 -0.12300 
0.12600 0.08850 -0.16250 
0.04250 0.07000 -0.13450 
0.07750 -0.01150 -0.07900 
0.09400 0.05350 -0.01550 
0.06150 0.13750 -0.02100 
-0.02000 0.01400 0.00350 
0.05500 0.05700 -0.06800 
-0.02950 -0.09350 0.14950 
-0.06050 0.00550 -0.00700 
0.00950 0.03400 -0.12400 
0.06600 -0.02250 -0.26250 
0.09700 0.15800 -0.13200 
0.07950 0.08500 -0.02650 
0.09850 0.09000 0.05600 
0.09300 -0.01900 -0.06200 
-0.02150 -0.06750 -0.08700 
0.07450 0.11650 -0.07300 
0.07950 -0.01050 -0.16250 
-0.04450 -0.01250 -0.12250 
0.06900 0.00100 -0.06500 
0.15250 0.11400 -0.14900 
0.12450 0.04300 -0.04750 
0.02450 0.18350 -0.05350 
0.05550 -0.01000 0.04650 
-0.02500 0.00300 -0.08250 
0.15450 0.14050 -0.12850 
0.03500 0.01500 -0.09650 
0.05500 0.06800 -0.09800 
0.07400 0.05050 -0.16000 
0.10850 0.01750 -0.06300 
-0.00650 0.05600 -0.02800 
0.08800 0.05650 0.02550 
0.15100 -0.07150 -0.18150 
0.01850 0.16500 -0.06400 
0.07500 -0.07150 0.12200 
-0.07050 -0.06550 -0.01150 
-0.08900 0.11150 -0.09750 
0.14350 0.00200 -0.19700 
0.02000 0.04250 -0.12400 
-0.04300 0.11500 -0.10150 
0.01350 -0.03200 -0.07550 
0.15050 0.15050 -0.15850 
0.05550 0.18900 -0.14950 
0.08150 0.10700 -0.16000 
-0.03650 -0.09350 0.07950 
0.05300 0.11350 -0.05700 
-0.04850 0.09200 -0.02550 
0.07350 0.09150 -0.03800 
0.01250 0.04700 -0.06100 
0.10000 0.02100 -0.03350 
0.05300 0.07700 -0.24050 
-0.05450 -0.06400 -0.21750 
0.08750 0.06650 -0.07900 
0.02250 -0.17250 -0.02600 
0.10300 -0.01600 -0.03250 
0.10650 0.09600 -0.09500 
0.04350 0.09700 -0.10900 
0.00550 0.14000 -0.03850 
-0.08200 0.14200 0.01150 
-0.01950 0.00900 0.05650 
0.06800 0.02500 -0.27350 
0.10200 0.00600 0.18800 
0.00500 -0.09800 -0.00400 
0.08200 0.08150 -0.12150 
-0.00550 0.05850 -0.07450 
0.11650 -0.04100 -0.07550 
0.12450 0.00550 -0.29550 
0.03050 0.05450 -0.01850 
0.09950 0.05500 -0.03850 
-0.02650 0.03850 -0.08950 
-0.01600 0.01650 -0.05450 
0.03100 -0.03400 -0.23900 
-0.08400 0.01350 -0.21600 
0.03300 0.10400 -0.14100 
0.05450 0.06900 -0.23100 
0.10400 -0.06500 -0.03300 
0.12950 0.12750 -0.13500 
0.10300 0.06150 -0.16800 
-0.03400 -0.00950 0.00200 
0.01900 -0.02250 -0.02050 
0.12350 0.05500 -0.13250 
0.00800 0.10000 -0.11650 
0.06850 -0.00850 0.03150 
0.04100 0.00500 -0.08600 
0.15000 0.05900 -0.14700 
0.05150 0.15800 -0.17550 
0.13700 0.11350 -0.09650 
0.12000 0.15100 0.00900 
0.12350 0.14100 -0.05400 
0.22950 0.00550 -0.28350 
0.06850 -0.00300 -0.06950 
0.11550 0.07200 -0.23700 
0.03800 0.02850 -0.06400 
0.00200 -0.04200 -0.15550 
-0.09400 0.08850 0.06700 
0.03650 0.07750 -0.19200 
0.17900 -0.07200 -0.14200 
0.10500 0.13800 -0.10950 
0.16850 0.08000 -0.09450 
0.18350 0.03500 -0.11100 
0.05700 0.18000 0.03400 
-0.03100 0.03100 -0.03400 
0.09100 0.09000 -0.16200 
-0.06100 0.00250 -0.08950 
0.12250 0.05200 -0.08950 
-0.01450 -0.00900 -0.16150 
0.19750 0.02350 -0.08800 
0.05050 0.13600 0.02800 
0.04800 -0.05050 0.00500 
0.06200 0.11750 0.04750 
-0.01200 0.01500 -0.17750 
0.06800 0.10600 -0.02400 
0.07100 0.15300 -0.14250 
0.08900 0.02300 -0.08550 
0.08150 0.04700 0.01750 
-0.05400 -0.00050 0.15650 
-0.07100 0.02550 -0.02500 
0.04500 0.05750 0.02600 
0.00650 0.11600 -0.23850 
0.08100 0.06600 -0.04950 
0.09050 0.12650 -0.20250 
0.08500 0.14200 -0.02200 
0.04050 0.01600 -0.16000 
0.10950 -0.13800 -0.01350 
-0.03500 -0.07650 -0.23400 
0.05650 0.02000 -0.15850 
0.03950 -0.04600 -0.15600 
0.11500 0.09400 -0.00300 
0.09750 -0.00650 -0.08750 
0.12600 0.06900 -0.02150 
0.09850 0.13950 -0.03900 
0.02800 -0.03450 0.18700 
0.00500 0.07300 -0.12700 
-0.01850 0.08100 -0.08250 
0.00500 0.04400 0.05500 
-0.04600 0.05750 -0.12000 
0.05850 -0.01500 -0.08800 
-0.13150 0.08900 -0.09200 
0.10650 0.02050 -0.20150 
0.09100 0.13750 -0.28100 
-0.02200 -0.05600 -0.02400 
0.09300 0.05300 0.03400 
0.17950 0.13250 -0.04200 
-0.01450 -0.05200 -0.16050 
-0.07400 0.08650 -0.04150 
0.11200 0.09450 0.05750 
0.09150 0.14550 -0.12600 
0.11150 0.01250 -0.06750 
-0.00800 0.04300 0.00600 
0.08700 0.09900 -0.19150 
0.11500 -0.01350 -0.14450 
-0.07700 0.00200 -0.21450 
0.06050 0.03200 -0.11900 
0.07250 0.10850 -0.02800 
-0.02800 0.05950 0.07100 
-0.00800 0.08800 -0.16650 
0.17600 -0.04250 -0.12950 
0.00450 0.10300 -0.00200 
0.11000 0.08200 -0.09600 
0.05850 0.13750 0.06000 
0.06450 0.01400 0.02250 
0.05750 -0.05900 -0.25700 
-0.04300 -0.00450 -0.05850 
0.09650 -0.03700 0.08850 
-0.08350 0.09750 0.09500 
0.06050 0.06650 0.05000 
0.02500 0.11800 -0.07200 
0.12300 -0.02750 -0.09550 
0.05650 0.01900 -0.08400 
0.17800 0.07900 -0.16300 
0.04450 -0.05600 0.02600 
-0.00150 0.03850 -0.14700 
0.13800 0.06450 -0.05200 
0.15650 -0.00900 -0.04000 
0.07400 0.10250 -0.15650 
0.10250 0.18350 0.00350 
0.01300 0.10350 -0.15500 
0.07450 0.03850 -0.18050 
-0.02100 0.10200 0.05400 
0.12600 0.09100 -0.11950 
0.12650 0.13850 -0.15050 
0.19350 0.04150 -0.01000 
0.07900 -0.07100 -0.16900 
-0.06800 0.08750 -0.03150 
0.07000 0.15550 -0.03550 
0.06900 0.00900 -0.00650 
0.04150 0.13150 -0.10450 
-0.08600 -0.10800 -0.24850 
0.06450 0.01750 -0.12450 
-0.04100 -0.05800 -0.04750 
-0.03850 -0.06800 -0.03150 
0.06400 0.11700 -0.10300 
0.02400 0.09900 -0.12450 
0.00300 0.04350 -0.02750 
SCALARS NextParticleID double 1 
LOOKUP_TABLE default
137 
223 
82 
21 
9 
58 
5 
6 
281 
49 
33 
57 
147 
346 
23 
355 
97 
138 
14 
32 
120 
24 
2 
46 
1 
148 
12 
25 
38 
92 
37 
116 
34 
19 
79 
45 
81 
224 
48 
134 
163 
4 
616 
175 
364 
84 
117 
53 
7 
96 
442 
395 
61 
47 
345 
329 
404 
30 
83 
150 
71 
27 
85 
211 
124 
141 
105 
780 
781 
100 
59 
199 
11 
143 
234 
119 
78 
221 
54 
113 
131 
190 
76 
10 
494 
121 
254 
35 
130 
73 
347 
752 
125 
194 
468 
225 
165 
406 
160 
106 
109 
129 
271 
197 
110 
759 
228 
140 
26 
18 
136 
432 
132 
542 
441 
122 
422 
184 
756 
425 
91 
66 
70 
22 
251 
146 
115 
757 
552 
192 
56 
204 
208 
421 
283 
545 
517 
426 
466 
782 
174 
755 
173 
558 
388 
189 
493 
239 
188 
219 
236 
371 
75 
263 
151 
650 
245 
495 
114 
202 
571 
241 
460 