# vtk DataFile Version 2.0 
Xm, Ym, Zm, Uvecs, timestep 10086 
ASCII 
 
DATASET POLYDATA POINTS 521 float 
 -7.313  -1.445 -70.617 
  3.294   8.934 -70.473 
 -5.073   1.050 -70.032 
  7.739   3.423 -69.583 
 -1.203   6.597 -68.890 
  1.598   9.236 -71.844 
  1.829   6.066 -71.069 
-10.163  -6.282 -67.774 
  5.518   0.309 -69.724 
 -0.872  -5.931 -69.879 
 -8.601   3.479 -72.349 
 11.399   2.725 -72.358 
  3.976   8.726 -66.447 
  3.998  -3.502 -69.007 
-11.243  -7.290 -72.783 
  0.721   2.268 -65.871 
  0.013   5.915 -66.655 
  2.032  -3.144 -71.968 
 -4.622  -7.447 -71.261 
 -9.944  -2.017 -71.885 
-15.394  -5.568 -75.400 
 -0.968  -6.072 -71.436 
 -6.729  -6.063 -70.809 
 -1.236   2.625 -69.272 
 -1.269   1.746 -75.308 
  7.271  11.108 -67.810 
 -3.390  -3.362 -69.977 
 -6.704   6.180 -67.155 
 -4.013   6.211 -69.433 
 -7.537  -5.186 -71.111 
  2.211  -1.881 -73.857 
 -4.089  -4.288 -71.763 
 -4.669  -0.521 -74.177 
  5.726  10.890 -65.523 
 -6.726   3.384 -71.064 
  7.520  -2.000 -68.285 
  2.517   8.281 -70.470 
 -0.311   7.067 -63.673 
  3.611   0.470 -69.930 
  2.224  10.444 -67.978 
 -1.326   1.277 -64.999 
  4.102  -4.332 -72.679 
 -8.236  12.137 -71.144 
 -8.244   3.470 -66.908 
-11.388  -1.436 -66.463 
 -7.270   8.697 -66.990 
 10.646   5.904 -67.595 
  6.851   7.508 -67.599 
  8.826   9.122 -66.898 
  1.847  -6.883 -66.486 
 -5.846  -5.896 -60.691 
 -3.697   6.486 -66.271 
  2.527  -4.542 -65.903 
 -2.986  -6.081 -70.498 
 -1.442   2.563 -67.121 
 -2.277  -1.318 -73.868 
 -6.400  -1.360 -68.118 
  1.101   4.060 -70.529 
 -7.526  11.962 -71.757 
 -9.203   2.307 -63.196 
 -1.775   7.201 -62.397 
 -8.116  10.923 -64.284 
 -3.087   1.583 -74.445 
  4.693  -1.477 -66.492 
  4.828   3.710 -69.182 
 10.533   3.487 -73.600 
 14.514   4.470 -74.408 
-12.683   1.245 -70.830 
-10.582 -10.009 -68.707 
 -0.461  -4.117 -69.507 
 -7.818  -5.452 -63.893 
  8.750  -4.091 -69.799 
  2.572  11.207 -74.089 
 -7.727   0.940 -66.430 
-11.243   1.736 -64.982 
  7.766  -5.586 -68.810 
 -6.333  -4.222 -68.111 
 -0.520   0.155 -69.888 
 -4.737   8.724 -70.248 
  0.820   8.926 -71.585 
 -4.693   4.245 -62.205 
  9.207 -10.779 -68.212 
 -5.049  -8.314 -68.481 
 12.419   7.194 -68.162 
  4.101  10.805 -67.199 
-12.108  12.163 -73.415 
-11.023  -6.415 -72.005 
 -2.923  -0.011 -66.781 
  6.551  -6.257 -68.517 
  1.196  -8.977 -73.150 
  2.114   4.703 -69.494 
  8.916  -7.626 -67.290 
  4.696 -10.459 -71.032 
 -2.458   8.753 -67.314 
 11.533   0.030 -66.972 
-12.053   8.386 -70.523 
  8.126  12.139 -71.023 
 -8.242  -6.618 -70.685 
 -9.539  -2.115 -64.475 
 -5.182  -6.223 -71.020 
 15.426  -0.025 -72.215 
 -5.919   3.383 -61.436 
-12.536  -6.074 -73.103 
  1.854 -10.108 -70.877 
 -1.079 -10.945 -71.672 
 15.993   7.716 -68.763 
  8.947   8.682 -71.519 
 10.123  -2.966 -67.483 
  4.084  11.600 -68.278 
 -6.197  11.258 -64.013 
  6.439 -12.049 -70.230 
  2.515  -4.847 -63.434 
 -3.156   4.814 -66.532 
  0.081  11.971 -64.248 
 -7.309   2.089 -65.535 
 -5.073   6.995 -70.995 
-11.100  -5.268 -69.762 
-10.964  11.073 -70.998 
  3.662  -8.293 -65.064 
  1.576  -7.295 -66.200 
  5.917   8.558 -61.352 
 -9.579  11.937 -63.989 
  3.232   2.811 -69.308 
 -8.058  -3.269 -65.183 
 -7.825   4.136 -68.637 
 -2.955  -0.342 -65.716 
  2.152  -2.663 -64.061 
-12.505   8.082 -66.353 
  0.948  -4.740 -65.511 
-13.303   0.035 -67.685 
 -5.660   7.474 -65.856 
 -1.879  12.401 -66.599 
 -6.837 -12.221 -67.213 
 -4.402 -11.691 -67.088 
 -5.672   8.571 -69.103 
 -4.792   1.648 -63.329 
  6.029   5.823 -64.328 
 -6.079  -0.117 -62.992 
 -1.214  -2.851 -67.812 
  5.921  -0.456 -72.983 
 -6.018   6.411 -72.950 
  9.678   8.531 -68.126 
  3.517   3.681 -65.290 
  2.571   6.489 -65.636 
 -3.912  -0.934 -74.387 
-13.999   9.648 -72.548 
 -9.774  -3.292 -67.288 
  7.236  -5.633 -64.707 
 11.376  -1.363 -67.875 
 -4.723  11.308 -64.400 
  5.484   9.317 -72.237 
  9.711  -5.888 -72.724 
 -1.717 -12.033 -67.008 
-13.573  -2.516 -66.061 
 -2.269   7.418 -66.400 
  6.706  -8.942 -67.552 
 -3.173  -2.841 -62.722 
  6.753   9.554 -66.732 
 -9.236   3.984 -72.115 
 10.972  -2.351 -73.263 
  4.713   6.031 -64.393 
 -4.268  -8.070 -65.449 
  1.057  -9.706 -68.121 
  0.104  -3.662 -64.040 
 13.172  -0.633 -69.116 
  0.853   7.110 -60.231 
  8.129  -5.220 -63.389 
 -6.739  -8.538 -67.370 
 -4.866 -12.496 -65.062 
  1.747 -10.360 -66.103 
-10.887  11.976 -65.440 
 -2.011  11.659 -66.356 
  2.892   9.049 -61.712 
 11.256  -0.150 -73.783 
 10.264   0.425 -68.581 
 -0.483  -2.359 -68.727 
 -7.687   9.973 -66.770 
 -2.601 -12.430 -72.757 
 -0.549  -7.769 -65.554 
  1.393  -4.018 -65.057 
  6.705   2.472 -66.147 
  3.683 -10.923 -70.945 
 -5.161 -11.947 -62.023 
-12.761   5.959 -66.607 
 -6.263   9.299 -67.321 
  6.744  -6.944 -64.819 
 -5.936   5.369 -75.722 
 12.231   7.690 -67.620 
 -5.665  -0.848 -62.653 
  4.348  11.411 -73.274 
 -8.624  12.493 -69.624 
 -7.223  -3.289 -68.514 
 -5.063   0.267 -75.737 
  1.189  -3.119 -72.045 
-10.371   5.926 -68.564 
 -3.718   5.331 -73.451 
  1.147   6.447 -63.636 
  9.687  -2.974 -64.034 
  7.390  -8.090 -66.452 
  1.954   3.717 -63.727 
-11.677   3.097 -64.681 
 -8.412 -11.278 -64.136 
  9.026  -6.712 -63.697 
  5.502   5.124 -71.130 
 -2.447  -4.113 -61.166 
  9.808  -7.765 -70.242 
 14.331  -6.651 -73.023 
 -6.003   2.984 -66.000 
 -4.142   1.374 -67.699 
  3.218   6.487 -71.502 
-13.620  11.466 -74.647 
 12.079  -5.434 -70.565 
 11.468   9.439 -66.554 
  0.656   3.226 -66.596 
 15.483   1.507 -72.373 
-12.771   6.455 -69.350 
  1.762  -1.155 -63.316 
-11.494  -6.089 -64.937 
 -4.152  -0.719 -64.508 
  3.338 -10.740 -69.513 
-15.903  -9.043 -73.662 
 -9.668  11.162 -66.029 
 -8.752   9.660 -62.587 
 -2.015 -10.585 -71.538 
  8.340 -10.776 -69.618 
-13.566   2.672 -67.796 
 11.565  -5.848 -70.278 
 10.268 -11.105 -66.322 
 14.898  10.852 -75.094 
  9.076  -5.632 -74.036 
 11.659  10.604 -68.969 
  3.802 -10.532 -72.529 
 11.758   2.333 -67.210 
-13.545 -10.242 -71.584 
 -2.511  -0.841 -62.329 
  0.182  -3.783 -61.345 
 15.043   3.527 -66.517 
 10.075  10.060 -67.796 
-13.902 -10.614 -70.892 
 -2.482   9.401 -73.843 
-15.162   6.027 -70.429 
 -3.504  11.526 -67.986 
  3.306   0.010 -66.384 
  2.151  11.207 -65.391 
-11.980   2.199 -65.532 
 -9.296  -6.277 -68.129 
  9.938  -5.763 -65.805 
 -3.133  -6.665 -62.516 
-13.977   8.329 -69.892 
  9.572   0.573 -71.279 
  7.279   2.253 -69.819 
 10.744  11.950 -65.293 
-12.663  12.977 -66.679 
 10.550   4.553 -63.533 
 -0.948   1.211 -69.012 
 -2.190   1.105 -69.310 
-10.345  -9.502 -76.980 
 15.448  -3.011 -74.808 
-15.143   4.992 -72.215 
  7.935  10.118 -72.989 
 14.939  10.230 -65.636 
  3.332   0.418 -65.325 
 14.212   8.614 -64.776 
-13.608  12.881 -69.449 
 -8.069  11.351 -63.340 
-11.183  11.166 -65.765 
 -4.481  -3.326 -72.639 
 -4.891  -6.514 -70.796 
-14.547   4.595 -69.614 
-15.653   3.085 -74.700 
 14.144  11.546 -69.817 
 11.541  10.941 -66.680 
 -8.241  11.633 -76.166 
 -0.422  -8.827 -68.618 
 10.889 -11.656 -72.102 
  8.767  -5.668 -65.964 
  6.781   2.836 -69.462 
 -8.826  12.491 -64.093 
-13.182   6.455 -67.505 
  5.053 -10.945 -69.505 
 -4.211   2.586 -63.965 
 16.151  -8.393 -70.828 
  0.112   3.650 -71.835 
  5.790   3.209 -69.477 
-15.942   9.828 -72.650 
 14.573  -3.267 -66.035 
 12.098  -8.103 -66.998 
 16.761  -0.204 -67.094 
  5.012  -6.537 -67.501 
 -9.927   8.752 -65.681 
 -8.235 -10.967 -74.788 
 16.485  -4.188 -73.273 
 17.468  -8.802 -73.196 
-12.297  -0.834 -75.205 
  3.547 -11.028 -76.340 
 -7.863   0.731 -71.700 
 16.729  11.067 -66.856 
-11.297  13.212 -65.945 
  7.367   4.072 -63.494 
 12.767   1.095 -72.438 
 11.819   8.640 -73.504 
 17.436   8.253 -73.355 
 11.836  10.763 -71.517 
-11.713   1.942 -72.863 
  7.159  -1.630 -65.576 
 15.674   0.842 -65.071 
 15.628   5.174 -64.847 
 -4.884   4.736 -64.962 
 -9.354   7.918 -67.376 
 12.753  -4.467 -67.582 
  9.209  -0.044 -64.990 
 -3.572  -2.173 -65.927 
-12.158   4.351 -75.496 
 -4.066  -1.785 -63.029 
 -6.963   4.838 -64.350 
-14.348   3.944 -68.218 
  4.213   9.300 -64.776 
 15.364  -7.425 -69.618 
 -9.463  -4.169 -76.957 
  7.803  -3.942 -75.763 
 12.038   2.327 -68.574 
-13.210  12.198 -67.487 
 -1.939   5.955 -73.592 
  1.858   8.851 -65.036 
  6.065   6.049 -72.685 
  1.130 -10.772 -72.178 
 -6.541 -10.032 -71.349 
  9.111   1.196 -72.205 
  5.230   2.301 -68.888 
 -7.018   9.762 -75.677 
 14.108   3.248 -69.106 
 -3.653  12.444 -71.707 
 -8.701  -4.559 -58.601 
  5.957   6.467 -71.761 
 -1.268   2.308 -67.739 
  8.149  -0.297 -74.028 
  9.883 -10.460 -60.652 
  2.495  -8.239 -70.201 
 -3.931   8.064 -71.821 
-10.884   4.383 -67.539 
  1.050  -2.381 -61.232 
 12.142   2.591 -63.861 
  4.755   6.027 -68.835 
 -6.671   0.980 -65.037 
 10.967  -9.492 -64.403 
-10.587   4.373 -75.453 
 -4.582  11.980 -61.489 
-13.736   2.091 -70.280 
  7.386   7.683 -74.254 
 -9.954  -3.157 -70.770 
 -0.775   1.934 -64.166 
 -0.344  -2.065 -67.642 
  6.252  -3.011 -68.755 
  8.108 -10.736 -64.727 
  1.291  -0.961 -73.201 
 -0.549 -10.120 -66.381 
 11.082  -2.418 -63.148 
 -6.182 -10.578 -65.898 
  6.958   7.069 -63.822 
-10.006   1.923 -74.014 
 -7.053  -9.341 -65.079 
 -4.797  -0.387 -68.163 
-10.323 -11.720 -62.713 
 -2.384  -0.258 -63.738 
  4.173  -1.416 -61.258 
 -9.553   7.862 -68.928 
-11.720  -2.202 -65.987 
 17.319  -8.982 -69.133 
  0.766  -8.140 -67.373 
 -6.620   3.125 -59.587 
  2.329  -8.339 -60.427 
  6.945   0.344 -72.774 
  5.060   7.099 -67.922 
 13.300  -1.087 -62.533 
  7.011   1.520 -63.215 
 -9.406  -9.645 -63.949 
  0.498   5.825 -76.415 
 13.477   0.027 -62.871 
 -0.673  10.416 -60.757 
 17.318  -2.327 -66.769 
  7.513 -12.615 -72.392 
  2.156  12.360 -73.320 
 14.619 -11.584 -65.170 
  1.058   6.918 -73.562 
 14.763   0.754 -63.740 
  2.475  10.759 -73.926 
-10.210  -1.076 -62.755 
 17.198  -9.515 -68.196 
  2.215  -2.311 -65.327 
 -4.939   2.545 -67.189 
  6.808  -1.099 -60.216 
-12.942  12.242 -65.429 
  5.291  -4.925 -61.206 
  8.959  -7.969 -72.075 
 -2.841   8.137 -59.837 
  3.141  -8.031 -65.340 
-10.729  -3.620 -74.499 
 -4.422   0.531 -63.777 
  7.103 -10.846 -73.621 
  2.270  -9.505 -57.606 
 16.799  -3.231 -68.760 
  9.825  -9.706 -62.422 
  7.152 -13.262 -62.753 
 -1.959  12.628 -60.669 
 15.877  10.511 -71.061 
  5.457  10.326 -75.855 
  9.489  -4.671 -62.584 
-10.812   3.208 -72.495 
 12.147  10.925 -64.797 
  7.819   0.278 -73.773 
 10.052  -6.688 -76.399 
 11.020   6.286 -68.340 
 -3.023  11.034 -75.883 
  1.236  -8.757 -70.655 
 -2.331  10.172 -74.808 
  7.691  12.622 -61.888 
 11.541   7.130 -63.517 
 10.844 -10.973 -67.669 
 -6.280   5.149 -66.166 
 12.287   5.364 -74.364 
 -2.623   8.207 -76.941 
 15.531  -0.223 -64.714 
 -0.758   1.152 -59.600 
 -9.093 -11.945 -66.816 
 15.040   2.758 -62.071 
 11.397  -2.705 -65.376 
 15.139   5.329 -66.147 
-13.930   0.412 -74.484 
 14.623  -3.760 -73.725 
  7.905   5.895 -72.177 
 10.198  -2.491 -71.353 
  7.543  10.286 -58.163 
-15.225   0.879 -71.581 
  0.037  10.316 -62.608 
 -1.833  11.965 -68.107 
 18.509 -11.137 -67.922 
 -7.938  -1.410 -61.168 
-14.606 -11.626 -72.250 
 -1.059  -5.946 -73.588 
 -1.509  -5.764 -77.831 
-14.954   1.822 -75.180 
 -4.590   8.116 -73.449 
 13.806   1.964 -74.994 
 -8.915   0.691 -73.612 
 10.781  -7.120 -58.731 
 17.290  -8.258 -65.600 
  9.705  -8.988 -62.876 
 15.836  -2.060 -74.415 
  5.872  -1.283 -71.511 
-14.307   0.760 -65.510 
  8.072  -9.607 -61.932 
 12.695  -9.209 -68.633 
 10.063   3.329 -62.650 
  8.929 -10.227 -62.010 
 -1.196  -1.889 -73.386 
 -6.199  -6.944 -62.103 
-10.560  -1.437 -63.073 
 -3.704  12.130 -64.362 
  7.923  11.282 -64.066 
 14.127 -11.721 -74.302 
  1.595   8.768 -74.858 
 13.998   4.221 -65.621 
 12.929  -1.534 -73.543 
  7.045   2.760 -65.380 
 -6.877   1.851 -73.492 
 16.555 -11.657 -69.690 
-12.372  -3.972 -75.584 
 -7.069  -2.359 -68.102 
-10.154 -10.908 -61.877 
-10.860   1.759 -68.851 
 -5.645  -6.616 -77.589 
-14.986  -6.193 -76.390 
 14.563 -13.058 -67.631 
 16.870   2.712 -72.777 
  6.091 -11.861 -73.798 
 10.187  -0.672 -66.867 
-14.090   2.069 -67.043 
  1.025  -5.189 -64.187 
  8.025  -7.074 -76.343 
 18.276 -12.244 -67.731 
 10.879  -0.961 -75.456 
 15.872 -11.216 -72.939 
 13.084   9.964 -64.565 
 10.267   4.960 -66.530 
 -5.954  -0.168 -75.380 
  0.779   2.771 -66.665 
 13.512  11.250 -69.204 
 -5.208 -12.313 -64.561 
 -6.281  -8.323 -67.333 
  7.814   2.359 -61.243 
 15.790  -1.704 -62.855 
 12.034  10.369 -71.314 
 -2.848 -11.233 -64.129 
-15.627   6.954 -77.805 
  5.159  -7.698 -67.689 
  8.463  -9.960 -75.798 
 -5.380  -3.181 -67.040 
  5.028  -1.732 -64.153 
 -2.828   4.559 -68.351 
-15.631  -0.959 -72.376 
 10.459  -6.303 -71.585 
 -5.522  11.019 -70.631 
-12.293  -4.620 -72.383 
  3.492  -9.620 -73.666 
  5.145   7.013 -76.615 
-14.085  -9.707 -69.534 
  8.573   9.525 -65.156 
-12.934  -8.329 -69.600 
 13.663  11.915 -74.427 
 -4.199  10.813 -70.198 
-13.964 -11.817 -67.255 
-14.572  -0.151 -73.804 
 -1.318  -5.621 -60.260 
 -2.453  10.852 -67.660 
 18.438  12.303 -71.344 
 -9.697  10.343 -75.214 
 -2.761   7.721 -65.871 
  6.447   2.771 -67.855 
 11.414   2.300 -63.889 
 -3.011 -10.390 -61.647 
  2.251   6.410 -68.388 

 VERTICES 521 1042 
1 0 
1 1 
1 2 
1 3 
1 4 
1 5 
1 6 
1 7 
1 8 
1 9 
1 10 
1 11 
1 12 
1 13 
1 14 
1 15 
1 16 
1 17 
1 18 
1 19 
1 20 
1 21 
1 22 
1 23 
1 24 
1 25 
1 26 
1 27 
1 28 
1 29 
1 30 
1 31 
1 32 
1 33 
1 34 
1 35 
1 36 
1 37 
1 38 
1 39 
1 40 
1 41 
1 42 
1 43 
1 44 
1 45 
1 46 
1 47 
1 48 
1 49 
1 50 
1 51 
1 52 
1 53 
1 54 
1 55 
1 56 
1 57 
1 58 
1 59 
1 60 
1 61 
1 62 
1 63 
1 64 
1 65 
1 66 
1 67 
1 68 
1 69 
1 70 
1 71 
1 72 
1 73 
1 74 
1 75 
1 76 
1 77 
1 78 
1 79 
1 80 
1 81 
1 82 
1 83 
1 84 
1 85 
1 86 
1 87 
1 88 
1 89 
1 90 
1 91 
1 92 
1 93 
1 94 
1 95 
1 96 
1 97 
1 98 
1 99 
1 100 
1 101 
1 102 
1 103 
1 104 
1 105 
1 106 
1 107 
1 108 
1 109 
1 110 
1 111 
1 112 
1 113 
1 114 
1 115 
1 116 
1 117 
1 118 
1 119 
1 120 
1 121 
1 122 
1 123 
1 124 
1 125 
1 126 
1 127 
1 128 
1 129 
1 130 
1 131 
1 132 
1 133 
1 134 
1 135 
1 136 
1 137 
1 138 
1 139 
1 140 
1 141 
1 142 
1 143 
1 144 
1 145 
1 146 
1 147 
1 148 
1 149 
1 150 
1 151 
1 152 
1 153 
1 154 
1 155 
1 156 
1 157 
1 158 
1 159 
1 160 
1 161 
1 162 
1 163 
1 164 
1 165 
1 166 
1 167 
1 168 
1 169 
1 170 
1 171 
1 172 
1 173 
1 174 
1 175 
1 176 
1 177 
1 178 
1 179 
1 180 
1 181 
1 182 
1 183 
1 184 
1 185 
1 186 
1 187 
1 188 
1 189 
1 190 
1 191 
1 192 
1 193 
1 194 
1 195 
1 196 
1 197 
1 198 
1 199 
1 200 
1 201 
1 202 
1 203 
1 204 
1 205 
1 206 
1 207 
1 208 
1 209 
1 210 
1 211 
1 212 
1 213 
1 214 
1 215 
1 216 
1 217 
1 218 
1 219 
1 220 
1 221 
1 222 
1 223 
1 224 
1 225 
1 226 
1 227 
1 228 
1 229 
1 230 
1 231 
1 232 
1 233 
1 234 
1 235 
1 236 
1 237 
1 238 
1 239 
1 240 
1 241 
1 242 
1 243 
1 244 
1 245 
1 246 
1 247 
1 248 
1 249 
1 250 
1 251 
1 252 
1 253 
1 254 
1 255 
1 256 
1 257 
1 258 
1 259 
1 260 
1 261 
1 262 
1 263 
1 264 
1 265 
1 266 
1 267 
1 268 
1 269 
1 270 
1 271 
1 272 
1 273 
1 274 
1 275 
1 276 
1 277 
1 278 
1 279 
1 280 
1 281 
1 282 
1 283 
1 284 
1 285 
1 286 
1 287 
1 288 
1 289 
1 290 
1 291 
1 292 
1 293 
1 294 
1 295 
1 296 
1 297 
1 298 
1 299 
1 300 
1 301 
1 302 
1 303 
1 304 
1 305 
1 306 
1 307 
1 308 
1 309 
1 310 
1 311 
1 312 
1 313 
1 314 
1 315 
1 316 
1 317 
1 318 
1 319 
1 320 
1 321 
1 322 
1 323 
1 324 
1 325 
1 326 
1 327 
1 328 
1 329 
1 330 
1 331 
1 332 
1 333 
1 334 
1 335 
1 336 
1 337 
1 338 
1 339 
1 340 
1 341 
1 342 
1 343 
1 344 
1 345 
1 346 
1 347 
1 348 
1 349 
1 350 
1 351 
1 352 
1 353 
1 354 
1 355 
1 356 
1 357 
1 358 
1 359 
1 360 
1 361 
1 362 
1 363 
1 364 
1 365 
1 366 
1 367 
1 368 
1 369 
1 370 
1 371 
1 372 
1 373 
1 374 
1 375 
1 376 
1 377 
1 378 
1 379 
1 380 
1 381 
1 382 
1 383 
1 384 
1 385 
1 386 
1 387 
1 388 
1 389 
1 390 
1 391 
1 392 
1 393 
1 394 
1 395 
1 396 
1 397 
1 398 
1 399 
1 400 
1 401 
1 402 
1 403 
1 404 
1 405 
1 406 
1 407 
1 408 
1 409 
1 410 
1 411 
1 412 
1 413 
1 414 
1 415 
1 416 
1 417 
1 418 
1 419 
1 420 
1 421 
1 422 
1 423 
1 424 
1 425 
1 426 
1 427 
1 428 
1 429 
1 430 
1 431 
1 432 
1 433 
1 434 
1 435 
1 436 
1 437 
1 438 
1 439 
1 440 
1 441 
1 442 
1 443 
1 444 
1 445 
1 446 
1 447 
1 448 
1 449 
1 450 
1 451 
1 452 
1 453 
1 454 
1 455 
1 456 
1 457 
1 458 
1 459 
1 460 
1 461 
1 462 
1 463 
1 464 
1 465 
1 466 
1 467 
1 468 
1 469 
1 470 
1 471 
1 472 
1 473 
1 474 
1 475 
1 476 
1 477 
1 478 
1 479 
1 480 
1 481 
1 482 
1 483 
1 484 
1 485 
1 486 
1 487 
1 488 
1 489 
1 490 
1 491 
1 492 
1 493 
1 494 
1 495 
1 496 
1 497 
1 498 
1 499 
1 500 
1 501 
1 502 
1 503 
1 504 
1 505 
1 506 
1 507 
1 508 
1 509 
1 510 
1 511 
1 512 
1 513 
1 514 
1 515 
1 516 
1 517 
1 518 
1 519 
1 520 
POINT_DATA 521 
SCALARS MeanU double 1 
LOOKUP_TABLE default
0.07620 
0.14438 
0.15674 
0.13695 
0.09090 
0.11659 
0.20249 
0.19725 
0.17948 
0.14405 
0.07041 
0.18273 
0.14807 
0.21439 
0.16391 
0.16243 
0.13860 
0.11983 
0.13356 
0.12464 
0.15594 
0.13348 
0.14179 
0.11151 
0.07033 
0.05215 
0.15710 
0.11809 
0.12755 
0.16705 
0.12894 
0.10808 
0.10244 
0.11790 
0.05943 
0.19911 
0.14092 
0.21968 
0.13565 
0.14825 
0.18046 
0.11375 
0.06787 
0.21547 
0.13980 
0.18743 
0.09577 
0.09351 
0.08891 
0.16790 
0.11422 
0.10730 
0.14954 
0.18962 
0.13781 
0.11610 
0.13497 
0.11041 
0.07643 
0.13247 
0.24802 
0.14740 
0.09036 
0.18127 
0.14676 
0.13033 
0.13240 
0.08079 
0.18038 
0.16397 
0.16291 
0.16192 
0.20490 
0.14182 
0.14476 
0.14909 
0.13764 
0.13922 
0.09763 
0.12744 
0.09545 
0.10633 
0.16037 
0.04674 
0.10428 
0.08083 
0.16610 
0.13781 
0.13870 
0.17017 
0.17626 
0.14014 
0.13427 
0.13440 
0.15774 
0.11869 
0.10163 
0.16226 
0.16790 
0.14264 
0.06035 
0.08262 
0.11706 
0.17843 
0.12569 
0.05699 
0.10305 
0.06073 
0.13526 
0.09522 
0.22765 
0.16205 
0.14311 
0.11948 
0.13081 
0.20928 
0.16686 
0.09492 
0.20938 
0.17008 
0.15294 
0.08937 
0.21164 
0.12379 
0.17520 
0.11959 
0.18728 
0.05441 
0.13983 
0.18629 
0.17209 
0.18641 
0.11822 
0.11927 
0.12346 
0.09188 
0.20008 
0.09400 
0.13313 
0.14692 
0.09577 
0.06024 
0.21745 
0.18336 
0.07228 
0.06445 
0.14599 
0.07902 
0.06471 
0.12940 
0.05361 
0.15631 
0.16901 
0.09750 
0.12670 
0.16723 
0.09771 
0.10761 
0.09143 
0.05185 
0.16378 
0.12904 
0.15587 
0.13797 
0.14362 
0.27206 
0.11061 
0.10201 
0.15408 
0.15499 
0.07422 
0.14751 
0.16024 
0.04315 
0.15656 
0.15263 
0.10776 
0.10386 
0.12185 
0.15143 
0.11520 
0.16201 
0.15117 
0.17893 
0.13085 
0.08334 
0.03197 
0.04350 
0.06858 
0.16720 
0.13099 
0.05650 
0.08477 
0.11455 
0.15682 
0.05980 
0.21644 
0.11083 
0.06575 
0.14128 
0.09257 
0.10005 
0.12234 
0.13024 
0.06967 
0.14447 
0.03110 
0.19838 
0.14020 
0.16429 
0.09515 
0.05656 
0.05300 
0.16359 
0.07806 
0.04630 
0.12368 
0.14290 
0.19383 
0.16621 
0.15737 
0.06268 
0.12850 
0.08865 
0.12965 
0.22830 
0.06363 
0.12130 
0.13050 
0.08578 
0.08052 
0.16329 
0.12204 
0.14888 
0.09387 
0.16284 
0.08360 
0.07294 
0.11765 
0.07735 
0.04292 
0.08556 
0.18589 
0.11487 
0.17179 
0.16821 
0.10690 
0.12099 
0.10346 
0.12772 
0.19895 
0.08757 
0.05009 
0.18259 
0.13760 
0.11745 
0.09141 
0.08493 
0.12701 
0.10037 
0.03675 
0.20777 
0.16913 
0.01525 
0.13073 
0.06028 
0.13964 
0.15130 
0.02368 
0.11483 
0.04112 
0.07859 
0.11463 
0.12462 
0.04528 
0.04541 
0.20435 
0.14103 
0.04521 
0.13446 
0.12623 
0.05937 
0.11019 
0.19691 
0.04075 
0.14810 
0.10550 
0.07628 
0.15093 
0.13383 
0.17761 
0.07623 
0.08946 
0.13471 
0.12419 
0.09324 
0.12023 
0.05606 
0.16042 
0.12084 
0.08567 
0.10621 
0.04315 
0.10852 
0.22490 
0.06757 
0.10679 
0.12798 
0.12765 
0.07452 
0.18415 
0.11030 
0.11657 
0.12735 
0.19831 
0.15732 
0.09314 
0.04003 
0.04975 
0.03743 
0.09976 
0.03793 
0.13306 
0.13494 
0.14389 
0.14635 
0.11138 
0.16585 
0.13610 
0.06494 
0.07130 
0.10453 
0.10923 
0.08951 
0.14153 
0.09823 
0.10800 
0.12159 
0.04170 
0.15002 
0.09413 
0.15167 
0.13373 
0.15691 
0.14393 
0.07641 
0.18516 
0.11576 
0.08856 
0.06937 
0.12866 
0.14107 
0.17722 
0.12741 
0.09132 
0.16095 
0.16175 
0.11203 
0.17911 
0.06189 
0.11230 
0.15435 
0.08499 
0.10284 
0.14460 
0.07252 
0.15948 
0.03492 
0.14565 
0.11393 
0.26168 
0.13757 
0.13668 
0.12122 
0.15648 
0.10366 
0.13130 
0.23750 
0.16118 
0.04935 
0.19654 
0.11035 
0.08165 
0.07814 
0.09208 
0.14764 
0.08118 
0.07406 
0.20088 
0.15330 
0.17970 
0.06752 
0.22234 
0.09280 
0.20696 
0.16389 
0.10034 
0.13238 
0.17891 
0.22767 
0.06978 
0.13196 
0.12997 
0.08882 
0.07245 
0.10597 
0.10214 
0.10214 
0.11682 
0.11869 
0.06786 
0.06587 
0.07896 
0.18402 
0.17353 
0.13949 
0.20031 
0.10559 
0.24177 
0.05123 
0.12217 
0.06613 
0.13780 
0.14896 
0.14926 
0.06489 
0.15117 
0.18884 
0.04992 
0.11391 
0.10306 
0.21704 
0.14730 
0.14257 
0.13807 
0.08893 
0.05189 
0.05934 
0.17682 
0.06126 
0.16321 
0.04149 
0.08441 
0.04324 
0.21381 
0.15961 
0.14158 
0.10945 
0.18741 
0.13487 
0.19116 
0.08792 
0.16454 
0.11483 
0.14325 
0.21969 
0.14099 
0.21973 
0.15084 
0.08266 
0.08356 
0.15464 
0.03453 
0.11468 
0.09244 
0.08224 
0.11951 
0.09771 
0.21997 
0.05682 
0.04817 
0.17153 
0.08496 
0.05638 
0.14199 
0.21270 
0.18727 
0.10276 
0.07050 
0.09608 
0.03927 
0.04888 
0.15940 
0.14906 
0.08671 
0.13472 
0.09731 
0.17963 
0.09703 
0.16404 
0.13806 
0.02744 
0.12558 
0.05011 
0.13034 
0.10029 
0.15377 
0.18426 
0.10874 
0.08302 
0.15212 
0.09145 
0.16546 
0.15632 
0.08356 
0.13877 
0.17479 
0.15347 
0.12117 
0.07467 
0.10628 
0.18841 
0.14400 
0.32186 
0.06211 
0.06738 
0.13163 
0.15658 
0.16173 
0.12808 
0.09362 

 VECTORS Umean float 
0.02550 0.06750 0.02450 
0.02500 0.13900 -0.03000 
0.01800 0.15550 -0.00800 
0.00450 0.09950 -0.09400 
0.03350 0.07900 0.03000 
-0.05600 0.10100 -0.01600 
-0.02050 0.18400 -0.08200 
-0.06300 0.17450 -0.06700 
0.03150 0.16450 -0.06450 
0.06450 0.09850 -0.08300 
0.05950 0.02900 -0.02400 
0.11000 0.08650 -0.11750 
0.03800 0.14300 -0.00550 
0.08050 0.11850 -0.15950 
0.07650 0.10200 -0.10300 
0.04500 0.14750 -0.05100 
0.01950 0.12550 0.05550 
0.02050 0.10600 -0.05200 
0.01150 0.13050 0.02600 
-0.01050 0.12000 0.03200 
-0.02300 0.11700 -0.10050 
0.07250 0.07950 -0.07900 
0.01600 0.12050 -0.07300 
0.04250 0.09150 0.04750 
0.05150 0.04650 0.01150 
-0.04000 0.03300 0.00550 
0.08550 0.12950 -0.02450 
0.05250 0.10200 0.02800 
0.09900 0.07400 0.03150 
0.05000 0.15700 -0.02750 
-0.01000 0.12200 0.04050 
0.05000 0.06700 -0.06850 
0.04600 0.08350 0.03750 
0.03950 0.10750 0.02800 
0.04150 0.04000 0.01450 
0.07800 0.10300 -0.15150 
0.04800 0.12950 -0.02800 
0.09250 0.18500 0.07400 
0.01400 0.12450 -0.05200 
0.04100 0.12050 -0.07600 
0.09100 0.15100 -0.03850 
0.02650 0.09450 0.05750 
-0.00200 0.05750 -0.03600 
0.06950 0.11850 0.16600 
0.06700 0.11650 -0.03850 
0.13600 0.12850 0.01100 
0.01100 0.04650 -0.08300 
0.00050 0.06200 -0.07000 
0.02550 0.08500 -0.00550 
0.05650 0.11500 -0.10850 
0.02050 0.10800 -0.03100 
0.03650 0.10050 0.00900 
0.05600 0.06400 -0.12300 
0.12900 0.09600 -0.10050 
0.02850 0.12050 0.06050 
0.01350 0.11500 0.00850 
0.04300 0.12700 -0.01550 
0.01000 0.09550 0.05450 
0.01800 0.06900 -0.02750 
-0.05000 0.09300 -0.08000 
0.06800 0.18000 0.15650 
0.00050 0.14500 -0.02650 
0.02250 0.07350 -0.04750 
0.09550 0.12750 -0.08650 
0.03200 0.10850 -0.09350 
0.02100 0.07500 -0.10450 
-0.02050 0.07800 -0.10500 
0.00950 0.07400 -0.03100 
-0.02800 0.11150 -0.13900 
0.07850 0.14350 -0.01150 
0.04600 0.15500 -0.02000 
0.07150 0.07650 -0.12350 
-0.09000 0.09850 -0.15550 
0.06800 0.12250 0.02200 
-0.02400 0.09450 -0.10700 
0.10800 0.05850 -0.08450 
0.11100 0.05500 -0.06000 
-0.02350 0.12550 0.05550 
-0.00800 0.09650 -0.01250 
-0.10300 0.07500 -0.00250 
0.00100 0.08250 0.04800 
0.05650 0.06850 0.05850 
-0.00200 0.14950 0.05800 
0.03350 0.02750 -0.01750 
0.00650 0.10150 -0.02300 
0.07400 -0.02300 0.02300 
0.06400 0.13450 -0.07350 
0.08550 0.09850 0.04450 
0.10750 0.05650 -0.06700 
0.10050 0.13600 -0.01900 
0.00650 0.17600 -0.00700 
0.13200 -0.04050 -0.02400 
0.09600 0.01600 -0.09250 
0.04250 0.12750 -0.00100 
0.07000 0.07550 -0.11950 
0.09550 0.02600 0.06550 
-0.07800 -0.02150 -0.06150 
0.05600 0.15150 -0.01550 
0.04900 0.07500 -0.14200 
0.04100 0.13550 0.01750 
0.03600 -0.00950 -0.04750 
-0.00600 0.07550 0.03300 
0.05000 0.08950 -0.05650 
0.10150 0.04850 -0.13850 
0.02700 0.06600 -0.10350 
0.01400 0.05150 -0.02000 
-0.00450 0.05000 -0.09000 
0.03650 0.03200 -0.03650 
-0.05300 0.12400 0.01050 
-0.02450 0.09200 -0.00150 
0.17450 0.00750 -0.14600 
0.03900 0.10400 -0.11800 
0.05950 0.09900 0.08450 
0.05750 0.10300 -0.01900 
0.04750 0.11800 0.03050 
0.15150 0.05850 -0.13200 
0.04900 0.13100 -0.09100 
0.07550 0.05750 0.00200 
0.03200 0.10800 -0.17650 
0.04600 0.11850 -0.11300 
0.03800 0.14650 0.02200 
0.04850 0.07300 -0.01750 
0.04250 0.20650 -0.01850 
0.04850 0.08700 -0.07350 
0.10200 0.06550 0.12650 
0.03300 0.10900 0.03650 
0.07100 0.11050 -0.13350 
0.03350 0.03650 0.02250 
0.07000 0.08950 -0.08150 
0.00800 0.18600 0.00650 
0.11250 0.12500 0.03650 
-0.00000 0.18250 -0.03800 
0.08700 0.08000 0.00250 
0.08250 0.05350 -0.06750 
0.01450 0.11900 -0.02950 
0.03200 0.05350 0.06750 
0.09400 0.16800 -0.05450 
0.01550 0.08050 -0.04600 
0.07650 0.10650 -0.02300 
0.01050 0.11200 -0.09450 
0.07400 -0.00600 -0.06050 
0.03850 0.04600 0.00550 
0.13000 0.14450 0.09750 
0.05600 0.17250 0.02700 
0.01700 0.07000 0.00600 
0.02250 0.05850 -0.01500 
0.09050 0.08200 -0.08000 
0.03350 0.07150 0.00300 
0.02750 0.05700 -0.01350 
0.04050 0.12100 0.02150 
-0.01800 -0.00050 -0.05050 
0.06900 0.01450 -0.13950 
0.09150 0.06850 -0.12450 
-0.00150 0.08150 -0.05350 
-0.00650 0.12100 0.03700 
0.09900 0.13400 -0.01450 
0.04900 0.06150 -0.05800 
0.03400 0.10200 -0.00450 
0.06550 0.05950 -0.02300 
0.02750 0.04150 -0.01450 
0.07050 0.09350 -0.11450 
0.08550 0.08500 -0.04600 
0.09650 0.08350 -0.08950 
0.06800 0.12000 -0.00350 
0.11600 0.08150 -0.02300 
0.04700 0.15300 -0.22000 
0.00150 0.11000 0.01150 
0.02250 0.09950 -0.00000 
0.07700 0.04400 -0.12600 
0.09500 0.07850 -0.09400 
0.04400 0.05650 0.01950 
0.01700 0.14650 0.00300 
0.02300 0.15850 -0.00500 
-0.02950 0.02950 -0.01100 
0.04550 0.09100 -0.11900 
0.07250 0.13250 -0.02200 
0.05250 0.09150 -0.02200 
-0.02750 0.08200 -0.05750 
0.06650 0.08150 -0.06150 
0.08250 0.09250 -0.08700 
0.07200 0.08800 -0.01850 
0.11100 0.04400 -0.10950 
0.12500 -0.01600 -0.08350 
0.02400 0.15450 0.08700 
0.09650 0.08700 0.01550 
-0.06400 0.03800 -0.03750 
0.01900 0.00600 0.02500 
0.01100 0.02900 -0.03050 
0.01350 0.06450 -0.01900 
-0.11700 0.05600 -0.10550 
0.06250 0.03050 -0.11100 
0.03600 0.04250 0.00950 
0.03250 0.07100 -0.03300 
-0.00800 0.11300 -0.01700 
0.14750 0.05200 -0.01150 
0.04600 0.02800 -0.02600 
0.11950 0.17550 -0.04200 
0.05650 0.05950 -0.07450 
0.02550 0.00850 -0.06000 
0.05100 0.12600 0.03850 
0.05500 0.01900 -0.07200 
0.05200 0.06500 -0.05550 
0.01350 0.09200 0.07950 
0.03600 0.12500 0.00650 
0.02150 0.06600 0.00600 
0.12200 0.06950 -0.03400 
-0.00650 0.01300 -0.02750 
0.02800 0.14450 0.13300 
0.02950 0.12800 -0.04900 
-0.05150 0.12600 -0.09200 
0.00200 0.06100 -0.07300 
0.01850 0.03950 0.03600 
-0.01200 0.05150 -0.00350 
0.05600 0.11800 0.09850 
0.05950 -0.00150 -0.05050 
0.03600 0.02900 -0.00250 
0.09000 0.07750 -0.03450 
0.00900 0.08700 -0.11300 
0.00750 0.19350 0.00850 
0.12350 0.07350 -0.08350 
-0.00350 0.15500 -0.02700 
0.01350 0.05850 -0.01800 
0.05750 0.08750 0.07450 
-0.01500 0.07300 -0.04800 
0.06750 0.07650 0.08000 
0.00800 0.22250 -0.05050 
0.06100 0.01600 0.00850 
0.06550 0.10050 0.01800 
-0.01950 0.05950 -0.11450 
0.04150 -0.01950 -0.07250 
-0.06550 -0.00550 -0.04650 
0.08400 0.13750 -0.02650 
0.02300 0.10700 -0.05400 
-0.00700 0.14700 -0.02250 
0.05750 0.07400 0.00550 
0.11200 0.10300 -0.05800 
0.04300 0.07000 0.01550 
-0.03250 0.06200 -0.02050 
0.03400 0.11250 -0.00550 
-0.02950 0.05750 -0.04250 
0.03000 0.02650 0.01550 
0.01000 0.07650 -0.03700 
0.10550 0.14500 -0.04900 
0.05450 0.09350 0.03850 
-0.02550 0.15950 -0.05850 
-0.05000 0.16050 -0.00600 
0.00100 0.10100 0.03500 
0.04050 0.10850 -0.03500 
0.09150 0.01300 -0.04650 
0.01500 0.12600 -0.01450 
0.01200 0.16600 -0.10900 
-0.05750 0.06600 0.00250 
0.03700 0.03050 -0.01450 
0.06700 0.11050 -0.12900 
0.06450 0.11250 0.04600 
0.05400 0.07400 -0.07350 
0.03600 0.08400 0.00200 
-0.00400 0.03450 -0.07750 
0.05050 0.11100 -0.03550 
-0.05350 0.04950 -0.06900 
0.00650 0.03600 -0.00350 
0.14000 0.15350 -0.00250 
0.09400 0.14000 -0.01300 
0.00950 -0.00650 0.01000 
-0.02650 0.12300 0.03550 
0.05550 0.02350 -0.00100 
0.11100 0.08300 -0.01700 
0.05450 0.13900 0.02450 
-0.01350 0.00850 -0.01750 
-0.03300 0.05950 -0.09250 
-0.00050 0.04000 0.00950 
-0.04850 0.06150 -0.00650 
-0.10000 0.04600 -0.03200 
0.07100 0.09200 -0.04500 
0.01200 -0.01750 -0.04000 
0.00100 0.01950 -0.04100 
-0.02300 0.16700 -0.11550 
-0.00700 0.14050 0.01000 
0.02100 0.03850 0.01100 
0.11250 0.00450 -0.07350 
0.05600 0.08600 0.07350 
0.02500 0.05000 -0.02000 
0.06850 0.08500 -0.01500 
-0.02100 0.13100 -0.14550 
0.03700 0.00900 -0.01450 
0.06100 0.07300 -0.11350 
0.04300 0.09500 -0.01600 
0.03350 0.06400 -0.02450 
0.08400 0.11950 -0.03800 
0.07750 0.10400 -0.03300 
0.04000 0.04150 -0.16800 
-0.02300 0.03150 -0.06550 
0.02100 0.07150 -0.04950 
-0.03100 0.00500 -0.13100 
0.11850 0.03400 0.01500 
-0.00750 0.05350 0.07600 
0.11100 -0.04550 -0.00800 
0.03350 0.04200 0.01600 
0.09750 0.12450 -0.02700 
0.03250 0.09850 -0.06200 
-0.07600 -0.03850 -0.00900 
-0.03100 0.09950 0.02050 
-0.00300 0.00200 -0.04300 
0.05350 0.06550 -0.06800 
0.12150 0.06700 -0.17700 
0.04900 0.04350 0.01650 
0.08150 0.06900 -0.00100 
-0.01850 0.08200 0.09650 
0.06150 0.09850 -0.05300 
-0.00300 0.04850 0.05650 
0.08500 0.10750 -0.12300 
0.06000 0.09250 0.00300 
0.07300 0.06550 -0.06300 
-0.00450 0.11250 0.05950 
-0.00650 0.17200 0.09850 
-0.01600 0.15600 -0.01250 
0.04350 0.07650 -0.03050 
-0.01250 0.03350 0.01800 
0.01200 0.01300 -0.04650 
-0.02950 0.01050 -0.02050 
0.04300 -0.00150 -0.09000 
0.02350 0.02250 -0.01950 
0.05600 0.12000 -0.01300 
0.05800 0.11400 -0.04300 
0.01800 0.10700 -0.09450 
0.06550 0.08200 -0.10200 
0.06100 0.09300 -0.00600 
0.02800 0.15850 -0.04000 