# vtk DataFile Version 2.0 
Xm, Ym, Zm, Uvecs, timestep 10056 
ASCII 
 
DATASET POLYDATA POINTS 508 float 
  3.476   4.890 -70.947 
 -5.872   8.814 -73.680 
  0.483  -0.510 -70.090 
-10.099   1.946 -72.297 
 -3.954   7.809 -72.076 
  0.799   5.291 -70.790 
  1.918   7.114 -69.230 
 -0.645   5.310 -70.547 
  5.183   7.427 -71.086 
 -6.348   8.960 -69.403 
 -3.201   6.713 -69.946 
 -2.251   4.144 -73.297 
-13.029   8.258 -76.352 
  2.281  -3.067 -70.827 
  1.474   4.450 -68.719 
 -4.973  -4.652 -69.916 
  5.607   5.464 -68.817 
  0.496   8.354 -72.173 
-11.918   5.885 -72.440 
 -3.684   2.120 -73.167 
  7.744   5.742 -67.631 
 -1.598   6.090 -68.345 
 -2.757  -3.115 -68.903 
  3.178  11.762 -69.022 
  0.114   1.083 -73.115 
 -3.476   3.216 -71.605 
 -7.325   5.492 -70.334 
 -2.063  11.377 -73.224 
 -9.302  -5.132 -69.240 
  3.457  -2.081 -67.364 
  8.454  11.539 -70.839 
  8.186   1.976 -71.745 
 -3.809  -3.942 -70.648 
 -2.670  -0.956 -73.972 
-13.011   7.884 -69.091 
  9.372  11.655 -69.210 
  8.011   5.166 -69.381 
  5.598   3.370 -69.844 
  7.934  -0.026 -67.844 
 -1.085   0.802 -72.126 
  1.287  -3.042 -69.557 
 -0.941  11.422 -70.005 
  4.745   8.665 -71.110 
 -4.983   2.764 -68.255 
 -1.824  10.389 -68.126 
  8.345   8.643 -68.591 
-12.399   2.405 -71.178 
 13.336   0.079 -70.499 
 -4.155   8.552 -70.834 
  2.302  -7.725 -72.966 
 -5.890   2.741 -73.155 
  5.700  -1.879 -67.650 
  3.744  12.790 -68.330 
 10.544   7.872 -70.361 
  5.119  -4.062 -65.656 
 -3.163  -5.511 -73.389 
  3.311  -9.287 -75.119 
 -3.516  -6.297 -72.677 
 -6.262   8.400 -64.376 
 -8.325  -9.736 -68.740 
 -6.547  10.866 -66.415 
 12.958  -2.157 -69.788 
 -1.488 -10.464 -74.773 
  1.571  -2.603 -66.055 
  2.556   5.595 -65.888 
 -2.271   5.453 -62.121 
 -8.333  11.311 -74.374 
 -5.964   1.632 -68.838 
 -8.304  -7.796 -67.516 
  5.446  -2.404 -71.545 
  2.313   3.242 -65.454 
  0.211   6.050 -70.427 
 -8.645  -6.011 -68.701 
 -6.511 -11.371 -72.010 
  2.101 -10.959 -66.099 
  9.352  -6.871 -72.500 
 -8.764  -8.535 -68.731 
 13.061  -3.429 -69.969 
-10.538   1.925 -69.865 
 -2.054   3.277 -61.669 
  5.944  -8.983 -65.488 
 -0.797   8.390 -64.518 
 -4.143  11.864 -70.108 
-11.795  -8.531 -69.284 
 10.054   8.888 -72.834 
 -1.086   7.081 -63.234 
  2.777  11.137 -64.705 
  2.987  -8.137 -66.612 
-14.482  -5.482 -68.611 
  0.379   1.853 -63.742 
 -3.636   5.098 -64.849 
 -8.331   8.689 -73.399 
 -8.250   2.207 -72.308 
 -4.713  -0.230 -67.805 
 -6.595   7.199 -62.672 
 -8.447   4.556 -62.970 
 -5.460   5.280 -70.938 
  8.797  10.885 -64.377 
 -8.896   4.482 -65.355 
 14.135  -8.332 -68.246 
  1.682  -5.351 -72.812 
 -6.238   3.486 -62.038 
 -6.969   4.290 -63.601 
  2.085  12.788 -69.517 
 13.316   9.883 -65.829 
  1.052  12.842 -64.058 
 11.738   0.948 -71.132 
  7.003  12.169 -71.602 
  9.430   6.184 -67.856 
-10.090   0.760 -77.090 
 -8.008   1.321 -67.789 
-12.928  11.235 -65.135 
 -8.127  -1.777 -68.064 
 17.179   0.633 -69.374 
  7.197   4.246 -63.291 
  1.283   9.203 -63.351 
-10.468  11.047 -62.954 
  0.604  -6.149 -66.132 
  0.409   6.335 -72.368 
 -4.281  -4.950 -65.618 
  2.588   9.956 -70.135 
 -7.191   2.139 -62.033 
  8.378  10.816 -69.196 
  6.803  -4.627 -72.903 
-11.524  10.139 -66.101 
 -7.358  11.032 -63.754 
 15.471   3.739 -70.161 
  2.910  10.630 -74.978 
 -4.877  -9.096 -66.659 
  3.815 -11.108 -71.851 
 17.026   9.494 -69.463 
  2.342  -2.769 -65.787 
  7.248  -0.587 -73.201 
-11.259   5.226 -63.010 
  9.922   6.274 -63.713 
-10.282  -2.450 -65.215 
  1.586   4.316 -63.351 
  6.447  -6.069 -65.144 
-10.107   8.650 -65.935 
 -3.228  10.273 -75.576 
  5.813   3.212 -63.562 
  3.408   7.789 -74.949 
 -6.007   7.523 -74.429 
 -7.333  -0.010 -65.615 
 15.345  10.070 -68.615 
 -9.758  -4.425 -67.334 
-10.779   3.237 -69.780 
 12.947   2.392 -71.063 
 -4.244  11.544 -72.206 
  4.791 -10.121 -66.272 
 10.029  -6.641 -72.347 
-13.619  -0.613 -70.874 
 -9.213   6.029 -71.724 
 -8.713   7.877 -63.489 
  0.505  -4.877 -62.410 
 11.337   8.972 -65.550 
 10.497  -3.334 -70.701 
-12.078   4.309 -69.460 
  5.733 -11.558 -74.054 
  7.747   1.591 -61.569 
 14.741  -5.915 -72.417 
-14.430   5.683 -74.017 
 10.512  10.718 -72.749 
  8.494   4.630 -69.980 
 14.471  -5.018 -71.807 
-10.262  -3.699 -68.144 
 -3.739 -12.316 -73.481 
-15.552 -10.111 -71.492 
-13.283   9.117 -73.013 
 -7.978  -2.003 -64.875 
 12.066  -3.850 -70.837 
 -4.672  -7.156 -64.151 
  7.870   6.771 -72.941 
 -0.051   2.633 -73.328 
 -3.974   7.498 -63.272 
  3.040  10.508 -73.673 
  2.624   6.094 -65.345 
 -2.664   2.097 -60.376 
  1.498  -1.339 -70.845 
  9.336  -8.617 -73.192 
 12.395  -0.841 -71.767 
  3.174  -6.290 -67.247 
 -8.335  -5.111 -65.375 
 -8.927  10.137 -75.320 
 -7.730  -8.201 -66.804 
 -6.532   9.230 -65.227 
-10.137  11.017 -64.871 
  8.992  -3.737 -71.196 
 -1.329   8.003 -72.819 
 10.993  -3.621 -70.550 
 -3.162   3.075 -63.387 
 -5.759  -8.270 -65.233 
 -6.434  -2.032 -65.120 
-14.953  -9.019 -72.011 
 -7.362  -5.232 -64.182 
 -5.880   2.372 -61.918 
 -4.441   4.250 -72.328 
  5.767  11.186 -70.358 
 12.540  -0.288 -70.862 
  1.592   6.937 -70.914 
  7.544   2.652 -62.058 
 12.370  -0.740 -69.553 
 14.313  11.488 -73.550 
  7.472  -1.359 -61.627 
 -1.202  -9.176 -66.055 
  9.864  -3.129 -65.335 
 16.249  -6.723 -73.566 
  7.371   3.546 -65.564 
  6.143  -6.200 -62.010 
 -2.647  -6.630 -66.222 
 -6.385  -7.714 -68.072 
  4.490   1.026 -65.857 
 13.526  -2.863 -70.983 
-14.756  -1.654 -69.016 
-10.364   5.370 -65.286 
 10.504  10.617 -67.104 
 -8.828   5.444 -64.734 
 12.640  -4.774 -64.285 
 -9.099  -2.146 -67.710 
 -6.390  -4.819 -64.766 
-14.502  -7.191 -69.940 
  1.731   5.398 -76.114 
 -1.720   4.067 -66.976 
 -8.221   0.501 -71.512 
-10.265   9.474 -65.195 
 -5.559  -8.970 -77.227 
 10.235  11.769 -70.018 
 -8.403 -11.767 -68.838 
 -3.188 -11.902 -68.911 
  8.326   8.825 -72.737 
  2.379  -1.732 -67.108 
 -5.302   0.999 -76.201 
 12.861  -8.399 -68.725 
-10.575  -2.720 -68.429 
 15.513  -9.844 -71.662 
 11.769   0.828 -63.894 
  0.087 -11.163 -75.366 
 10.763   4.684 -63.451 
 -2.357   5.233 -69.406 
 13.257  -3.541 -65.783 
 -0.446  -9.225 -60.454 
 -2.174  11.714 -67.418 
  4.607 -13.047 -68.245 
 -3.622  11.381 -63.496 
  4.544 -11.733 -63.783 
  8.713   9.768 -70.239 
  7.402  -4.875 -71.154 
-13.200  -3.983 -70.117 
 -4.216  -4.949 -62.941 
  7.542  11.939 -65.786 
  0.251   3.236 -70.796 
 15.078   3.369 -66.751 
 10.633   7.835 -67.722 
  6.510   2.263 -63.473 
  7.313  -7.206 -74.195 
 -0.139 -12.002 -70.305 
  8.377   5.450 -63.097 
 -3.601  10.393 -66.626 
 -5.200   9.859 -65.656 
 -7.673   4.382 -64.472 
 -7.013   2.386 -68.970 
  0.965  -3.640 -63.518 
 17.285  11.352 -69.058 
  1.504  -5.910 -68.506 
 14.557  -1.033 -69.864 
 11.776   2.878 -66.710 
 -2.391  -3.093 -63.826 
 13.003  -7.330 -66.375 
 13.676  -3.148 -66.132 
-14.898  -9.947 -73.380 
-14.238   5.594 -67.220 
  9.585  -2.630 -74.721 
 -8.335   9.076 -65.685 
-13.913   6.012 -70.588 
 12.910  -6.287 -65.927 
  4.627   9.382 -74.590 
 -6.658  -2.926 -77.274 
 17.636  -6.891 -70.874 
 14.933  -4.568 -71.507 
-14.956   4.870 -68.867 
 11.568  -4.469 -67.226 
 17.520   1.779 -69.603 
 -8.113  -0.989 -65.703 
-14.134   0.843 -67.075 
 -8.190  -8.710 -74.974 
  5.460  -3.766 -62.324 
  4.427  10.180 -60.574 
 -2.656  10.701 -73.712 
 11.284   6.377 -64.272 
  5.829  11.016 -73.375 
-14.223   3.524 -70.403 
  6.614   7.031 -61.150 
-13.100  -8.704 -75.632 
 15.967  -8.085 -72.051 
 -9.962   7.636 -63.538 
-14.718   7.035 -74.828 
 -3.158  -1.465 -66.137 
-13.518   1.498 -67.508 
 -1.944  -5.284 -72.257 
-11.898   0.329 -76.407 
 14.538   2.192 -63.544 
-10.479   4.543 -68.787 
  5.010   9.560 -71.546 
  6.874  -1.134 -63.692 
 13.735  11.233 -68.704 
 -7.313   6.989 -68.149 
 -9.374  11.525 -76.093 
-10.192   6.058 -66.956 
 17.442   8.813 -69.526 
  7.635   6.970 -65.780 
  9.454  -0.810 -64.430 
 13.512  -0.942 -76.040 
-11.488 -10.657 -69.163 
 15.482 -12.864 -72.799 
 14.004   2.379 -64.142 
 -1.808  -1.173 -68.347 
 11.421   4.062 -64.798 
  4.498   4.412 -71.868 
-11.133  -5.629 -63.996 
  0.752  -7.721 -64.613 
 -5.860 -11.605 -65.758 
 15.591 -10.307 -68.974 
  5.161  -0.837 -68.217 
 14.056   4.757 -64.336 
 -6.186  -6.994 -67.742 
  2.300  12.521 -63.994 
  9.881  -1.570 -71.214 
 12.522 -10.865 -74.756 
  6.156   3.587 -72.168 
 -2.210  -1.857 -69.683 
 -8.295  -5.946 -73.748 
  0.349   1.102 -61.748 
 -5.025  -6.794 -70.917 
 -6.920   9.663 -60.221 
 10.839  -2.916 -76.410 
  5.691  -2.468 -72.879 
 -4.546  -5.983 -70.213 
  8.709   6.269 -70.196 
 -7.723   7.565 -73.583 
 17.232   8.992 -73.105 
-13.982   7.611 -71.453 
 -1.731   8.247 -73.326 
 -5.983  -6.981 -70.916 
 -7.909  11.954 -65.617 
 -6.382  -5.556 -66.272 
 -3.511   7.357 -68.507 
 -8.056   8.329 -72.576 
  6.886 -10.255 -64.262 
 -6.101   0.698 -61.664 
 17.331   7.632 -67.201 
 -8.160  -3.956 -62.861 
  2.098   2.359 -71.486 
 -6.527   2.982 -69.367 
 -3.471   6.494 -67.087 
 -6.070  10.801 -63.546 
 15.363 -11.814 -68.715 
-12.317  -5.978 -75.395 
 -3.912   1.396 -70.839 
 -5.559 -11.477 -60.801 
 -9.322 -10.355 -73.942 
 -0.031   0.822 -71.255 
 11.903 -10.088 -65.701 
  2.990  -8.194 -71.894 
 -6.742  -3.356 -65.090 
  7.239   9.311 -75.707 
  6.184 -10.458 -64.227 
 -7.980   9.996 -77.814 
 -5.367 -12.359 -65.669 
-11.893  -6.216 -67.009 
  3.124  11.950 -63.343 
 12.511  10.271 -71.279 
 10.973   2.428 -76.297 
-12.901  -1.319 -69.490 
 14.639  -6.879 -65.847 
  3.986  -6.015 -67.971 
 -2.540   8.666 -69.999 
  9.311   0.239 -63.444 
 -8.845  -1.756 -67.850 
 -1.256   8.342 -59.889 
 11.893   7.047 -62.464 
 -0.078   1.627 -59.212 
  1.180  -9.764 -76.466 
 15.079   8.678 -70.250 
-10.462   8.493 -62.076 
  7.753  -9.500 -63.679 
  8.745  -7.757 -65.933 
 10.159 -12.544 -69.715 
 14.665  -5.707 -66.271 
 -3.826   6.372 -60.355 
  0.353   2.995 -66.294 
  8.049  -6.922 -63.230 
  1.430  10.674 -61.960 
 15.747 -12.285 -67.723 
 11.534  10.857 -69.720 
  0.268  -6.635 -77.260 
 -7.390  -5.661 -66.235 
 14.612  -8.097 -63.312 
  1.237   5.032 -73.616 
 -7.919   7.180 -73.698 
 -6.009  -5.317 -67.475 
 -1.426  11.690 -60.392 
 16.008   6.941 -68.544 
 -6.838  10.521 -77.448 
-13.837  12.870 -67.389 
 -9.093 -11.923 -67.399 
 -9.151   7.013 -61.942 
 -8.850  -2.547 -62.154 
  5.649   8.485 -71.044 
 18.229   2.830 -70.068 
 -5.634   2.006 -65.635 
 12.042   3.741 -74.047 
 16.949   6.016 -67.605 
  0.741   9.407 -59.956 
  9.257   1.453 -73.677 
-13.715   5.136 -66.067 
  8.105 -12.211 -70.124 
  1.332 -10.350 -65.183 
  5.012  -2.798 -58.827 
 15.425  -2.768 -70.438 
 -1.474   1.964 -73.663 
  6.193 -13.181 -67.212 
 13.469  10.762 -70.456 
  7.644  -7.152 -69.963 
-13.208  11.557 -66.562 
  2.457   4.037 -67.042 
 11.848   9.247 -73.694 
  5.833 -10.833 -68.152 
-13.248  -2.116 -72.041 
 -2.591   5.741 -75.251 
 12.417   3.606 -63.279 
 12.686   5.995 -65.061 
 12.637  10.995 -69.415 
-10.757  -9.207 -62.966 
-13.852   0.599 -67.310 
  3.329  -7.391 -64.023 
 -1.502   5.190 -65.944 
 10.743   8.285 -62.293 
  9.691 -12.513 -64.633 
 17.434   7.447 -71.058 
 12.648   5.428 -76.415 
 -7.312   8.365 -66.233 
 -2.519  12.240 -72.161 
  8.902  -3.844 -64.290 
 -6.466   7.604 -67.845 
-11.353  -0.143 -61.154 
 12.140  12.749 -62.736 
 10.312  -3.716 -63.489 
 12.450  11.355 -63.695 
 14.431   2.034 -69.326 
-16.233   0.564 -72.573 
 -2.146  -1.484 -65.344 
 14.931  -5.669 -63.163 
  9.372  -9.383 -63.262 
  4.051  11.886 -72.918 
-12.505  -3.003 -72.802 
  5.686   2.936 -62.129 
 14.651  -5.280 -75.939 
-13.583  11.740 -68.483 
 12.340  -6.767 -60.701 
 15.576  -4.454 -61.035 
  7.568  -6.585 -74.418 
 -5.661   9.483 -67.010 
  5.325 -12.300 -72.563 
  6.590  10.006 -72.208 
 -4.050   2.370 -69.055 
 14.336 -10.498 -66.827 
  4.789  10.951 -75.476 
  1.177  -4.666 -74.352 
  3.148  -8.882 -71.300 
 -9.355   4.803 -74.106 
  4.447 -10.753 -72.563 
 -9.706  11.372 -76.597 
  6.247 -11.672 -65.990 
 12.787  -8.162 -64.619 
 16.421   5.794 -65.363 
 13.334   6.845 -64.250 
 -1.897  -4.858 -64.617 
  1.147  -1.310 -70.347 
 -5.590  -0.790 -67.474 
 -9.545   7.348 -67.756 
 -2.152 -10.474 -68.019 
 -5.406  -1.126 -65.104 
-12.988   1.178 -67.109 
-11.466   0.583 -68.721 
-10.213   5.691 -68.770 
 -7.034  12.786 -63.261 
  6.652  -8.474 -68.637 
  2.771   9.028 -64.784 
 15.253  -5.978 -72.745 
  8.076   7.418 -63.815 
 -6.143   4.130 -75.216 
 -9.457   4.975 -67.058 
 -3.800  -2.446 -67.989 
  2.262   9.841 -71.156 
  6.296  -3.087 -67.512 
 -9.469  -2.321 -65.235 
  8.559  -2.005 -75.279 
 -6.451  -1.130 -74.004 
 -7.628  -1.849 -66.001 
 -4.688  -2.812 -70.163 
-15.212  10.378 -71.554 
  9.003   3.348 -65.268 
 -6.319   8.032 -67.781 
-10.887   2.371 -74.637 
-13.862  -6.293 -72.084 
 -6.978  -6.184 -76.622 
 -7.580   7.978 -67.453 
 10.267   7.372 -72.930 

 VERTICES 508 1016 
1 0 
1 1 
1 2 
1 3 
1 4 
1 5 
1 6 
1 7 
1 8 
1 9 
1 10 
1 11 
1 12 
1 13 
1 14 
1 15 
1 16 
1 17 
1 18 
1 19 
1 20 
1 21 
1 22 
1 23 
1 24 
1 25 
1 26 
1 27 
1 28 
1 29 
1 30 
1 31 
1 32 
1 33 
1 34 
1 35 
1 36 
1 37 
1 38 
1 39 
1 40 
1 41 
1 42 
1 43 
1 44 
1 45 
1 46 
1 47 
1 48 
1 49 
1 50 
1 51 
1 52 
1 53 
1 54 
1 55 
1 56 
1 57 
1 58 
1 59 
1 60 
1 61 
1 62 
1 63 
1 64 
1 65 
1 66 
1 67 
1 68 
1 69 
1 70 
1 71 
1 72 
1 73 
1 74 
1 75 
1 76 
1 77 
1 78 
1 79 
1 80 
1 81 
1 82 
1 83 
1 84 
1 85 
1 86 
1 87 
1 88 
1 89 
1 90 
1 91 
1 92 
1 93 
1 94 
1 95 
1 96 
1 97 
1 98 
1 99 
1 100 
1 101 
1 102 
1 103 
1 104 
1 105 
1 106 
1 107 
1 108 
1 109 
1 110 
1 111 
1 112 
1 113 
1 114 
1 115 
1 116 
1 117 
1 118 
1 119 
1 120 
1 121 
1 122 
1 123 
1 124 
1 125 
1 126 
1 127 
1 128 
1 129 
1 130 
1 131 
1 132 
1 133 
1 134 
1 135 
1 136 
1 137 
1 138 
1 139 
1 140 
1 141 
1 142 
1 143 
1 144 
1 145 
1 146 
1 147 
1 148 
1 149 
1 150 
1 151 
1 152 
1 153 
1 154 
1 155 
1 156 
1 157 
1 158 
1 159 
1 160 
1 161 
1 162 
1 163 
1 164 
1 165 
1 166 
1 167 
1 168 
1 169 
1 170 
1 171 
1 172 
1 173 
1 174 
1 175 
1 176 
1 177 
1 178 
1 179 
1 180 
1 181 
1 182 
1 183 
1 184 
1 185 
1 186 
1 187 
1 188 
1 189 
1 190 
1 191 
1 192 
1 193 
1 194 
1 195 
1 196 
1 197 
1 198 
1 199 
1 200 
1 201 
1 202 
1 203 
1 204 
1 205 
1 206 
1 207 
1 208 
1 209 
1 210 
1 211 
1 212 
1 213 
1 214 
1 215 
1 216 
1 217 
1 218 
1 219 
1 220 
1 221 
1 222 
1 223 
1 224 
1 225 
1 226 
1 227 
1 228 
1 229 
1 230 
1 231 
1 232 
1 233 
1 234 
1 235 
1 236 
1 237 
1 238 
1 239 
1 240 
1 241 
1 242 
1 243 
1 244 
1 245 
1 246 
1 247 
1 248 
1 249 
1 250 
1 251 
1 252 
1 253 
1 254 
1 255 
1 256 
1 257 
1 258 
1 259 
1 260 
1 261 
1 262 
1 263 
1 264 
1 265 
1 266 
1 267 
1 268 
1 269 
1 270 
1 271 
1 272 
1 273 
1 274 
1 275 
1 276 
1 277 
1 278 
1 279 
1 280 
1 281 
1 282 
1 283 
1 284 
1 285 
1 286 
1 287 
1 288 
1 289 
1 290 
1 291 
1 292 
1 293 
1 294 
1 295 
1 296 
1 297 
1 298 
1 299 
1 300 
1 301 
1 302 
1 303 
1 304 
1 305 
1 306 
1 307 
1 308 
1 309 
1 310 
1 311 
1 312 
1 313 
1 314 
1 315 
1 316 
1 317 
1 318 
1 319 
1 320 
1 321 
1 322 
1 323 
1 324 
1 325 
1 326 
1 327 
1 328 
1 329 
1 330 
1 331 
1 332 
1 333 
1 334 
1 335 
1 336 
1 337 
1 338 
1 339 
1 340 
1 341 
1 342 
1 343 
1 344 
1 345 
1 346 
1 347 
1 348 
1 349 
1 350 
1 351 
1 352 
1 353 
1 354 
1 355 
1 356 
1 357 
1 358 
1 359 
1 360 
1 361 
1 362 
1 363 
1 364 
1 365 
1 366 
1 367 
1 368 
1 369 
1 370 
1 371 
1 372 
1 373 
1 374 
1 375 
1 376 
1 377 
1 378 
1 379 
1 380 
1 381 
1 382 
1 383 
1 384 
1 385 
1 386 
1 387 
1 388 
1 389 
1 390 
1 391 
1 392 
1 393 
1 394 
1 395 
1 396 
1 397 
1 398 
1 399 
1 400 
1 401 
1 402 
1 403 
1 404 
1 405 
1 406 
1 407 
1 408 
1 409 
1 410 
1 411 
1 412 
1 413 
1 414 
1 415 
1 416 
1 417 
1 418 
1 419 
1 420 
1 421 
1 422 
1 423 
1 424 
1 425 
1 426 
1 427 
1 428 
1 429 
1 430 
1 431 
1 432 
1 433 
1 434 
1 435 
1 436 
1 437 
1 438 
1 439 
1 440 
1 441 
1 442 
1 443 
1 444 
1 445 
1 446 
1 447 
1 448 
1 449 
1 450 
1 451 
1 452 
1 453 
1 454 
1 455 
1 456 
1 457 
1 458 
1 459 
1 460 
1 461 
1 462 
1 463 
1 464 
1 465 
1 466 
1 467 
1 468 
1 469 
1 470 
1 471 
1 472 
1 473 
1 474 
1 475 
1 476 
1 477 
1 478 
1 479 
1 480 
1 481 
1 482 
1 483 
1 484 
1 485 
1 486 
1 487 
1 488 
1 489 
1 490 
1 491 
1 492 
1 493 
1 494 
1 495 
1 496 
1 497 
1 498 
1 499 
1 500 
1 501 
1 502 
1 503 
1 504 
1 505 
1 506 
1 507 
POINT_DATA 508 
SCALARS MeanU double 1 
LOOKUP_TABLE default
0.11622 
0.08588 
0.17090 
0.04584 
0.11701 
0.09851 
0.14708 
0.11771 
0.07220 
0.14080 
0.13847 
0.12736 
0.05903 
0.12777 
0.17287 
0.12689 
0.07112 
0.10809 
0.04454 
0.09576 
0.06918 
0.16668 
0.09851 
0.11058 
0.10358 
0.09962 
0.06196 
0.03705 
0.16275 
0.20196 
0.07414 
0.12527 
0.10327 
0.08291 
0.04482 
0.06780 
0.06985 
0.07716 
0.20752 
0.09983 
0.22163 
0.12628 
0.05427 
0.08218 
0.10030 
0.09626 
0.05822 
0.10043 
0.11369 
0.09643 
0.06221 
0.17096 
0.10769 
0.09577 
0.17208 
0.04383 
0.05698 
0.09304 
0.15444 
0.07293 
0.11295 
0.08724 
0.12188 
0.16902 
0.16248 
0.12803 
0.07520 
0.06404 
0.09440 
0.09235 
0.16723 
0.12708 
0.16682 
0.19500 
0.12579 
0.05821 
0.07477 
0.09851 
0.03883 
0.20811 
0.12481 
0.14354 
0.15999 
0.16446 
0.15541 
0.15270 
0.16496 
0.20797 
0.10951 
0.19217 
0.18515 
0.12012 
0.02752 
0.14369 
0.23103 
0.13190 
0.09359 
0.14662 
0.10511 
0.05249 
0.07476 
0.16790 
0.12757 
0.10184 
0.10791 
0.16152 
0.09478 
0.10186 
0.10556 
0.05329 
0.20733 
0.05046 
0.08843 
0.12569 
0.07291 
0.16480 
0.17729 
0.19523 
0.09920 
0.15723 
0.05943 
0.09471 
0.12395 
0.07572 
0.05085 
0.17821 
0.11634 
0.10596 
0.11983 
0.08818 
0.11850 
0.16206 
0.09930 
0.15505 
0.14301 
0.18331 
0.18132 
0.18515 
0.13826 
0.08967 
0.17701 
0.05655 
0.07302 
0.15685 
0.10942 
0.13133 
0.08558 
0.10860 
0.11892 
0.07846 
0.09914 
0.06074 
0.11855 
0.10414 
0.14436 
0.12924 
0.03500 
0.08882 
0.05736 
0.12183 
0.06643 
0.05789 
0.11556 
0.11358 
0.08242 
0.09530 
0.08812 
0.05952 
0.06499 
0.14514 
0.03859 
0.22120 
0.08314 
0.09286 
0.15716 
0.14478 
0.17958 
0.23745 
0.16561 
0.06791 
0.05816 
0.15409 
0.14422 
0.04768 
0.14851 
0.18589 
0.05714 
0.06746 
0.10056 
0.05811 
0.13780 
0.18368 
0.14611 
0.02307 
0.12832 
0.14366 
0.08069 
0.11055 
0.09333 
0.06522 
0.16532 
0.13828 
0.10211 
0.17865 
0.14617 
0.04889 
0.09529 
0.11890 
0.19208 
0.14058 
0.09438 
0.23891 
0.11811 
0.16432 
0.09556 
0.05969 
0.12970 
0.10505 
0.10356 
0.11320 
0.12410 
0.05935 
0.13170 
0.06420 
0.11527 
0.06885 
0.10924 
0.15840 
0.15011 
0.12850 
0.15827 
0.08283 
0.07809 
0.11274 
0.08189 
0.16905 
0.16101 
0.17561 
0.13985 
0.09038 
0.14737 
0.13434 
0.11795 
0.13671 
0.09261 
0.10799 
0.03005 
0.03168 
0.18104 
0.04103 
0.10672 
0.11051 
0.10054 
0.13674 
0.06833 
0.15382 
0.09274 
0.11548 
0.13561 
0.10940 
0.12526 
0.20482 
0.15350 
0.17298 
0.10413 
0.13960 
0.14554 
0.08213 
0.08283 
0.13336 
0.07600 
0.08630 
0.10294 
0.03885 
0.06842 
0.13151 
0.04941 
0.06697 
0.07821 
0.04026 
0.05861 
0.09218 
0.13792 
0.16536 
0.13051 
0.21079 
0.14343 
0.08886 
0.08074 
0.11912 
0.04831 
0.15920 
0.11146 
0.08079 
0.20516 
0.04348 
0.18908 
0.19499 
0.09039 
0.02192 
0.14352 
0.12523 
0.08992 
0.20953 
0.09437 
0.08545 
0.06198 
0.08016 
0.10597 
0.10778 
0.12138 
0.07404 
0.18007 
0.04895 
0.15614 
0.12391 
0.15213 
0.07691 
0.26974 
0.16394 
0.17074 
0.05841 
0.22193 
0.09974 
0.12369 
0.09526 
0.11935 
0.15956 
0.05883 
0.12318 
0.08686 
0.16275 
0.19573 
0.13280 
0.15022 
0.14453 
0.11763 
0.12327 
0.06071 
0.05495 
0.03724 
0.10351 
0.21500 
0.14633 
0.12862 
0.14448 
0.09098 
0.04599 
0.13373 
0.10095 
0.10142 
0.14799 
0.09226 
0.10578 
0.10982 
0.08320 
0.08660 
0.07964 
0.12142 
0.10581 
0.16456 
0.15341 
0.14205 
0.14760 
0.09638 
0.06841 
0.06325 
0.21357 
0.12160 
0.07605 
0.14606 
0.15511 
0.07733 
0.16920 
0.17382 
0.12395 
0.13739 
0.08454 
0.12660 
0.12252 
0.21207 
0.07117 
0.13487 
0.16123 
0.06743 
0.13383 
0.08495 
0.11396 
0.06656 
0.20598 
0.04457 
0.13483 
0.07521 
0.11926 
0.03160 
0.13785 
0.16559 
0.13289 
0.11694 
0.09390 
0.13103 
0.13289 
0.14659 
0.06617 
0.14522 
0.16505 
0.12437 
0.09126 
0.13879 
0.13381 
0.11225 
0.06809 
0.14689 
0.08936 
0.07512 
0.05075 
0.23654 
0.25242 
0.10439 
0.10181 
0.17101 
0.14559 
0.07443 
0.08773 
0.18565 
0.13311 
0.18859 
0.14151 
0.10586 
0.19553 
0.13530 
0.11093 
0.12080 
0.22547 
0.23783 
0.23421 
0.15044 
0.16399 
0.16357 
0.16593 
0.08140 
0.05878 
0.15430 
0.09083 
0.08630 
0.14752 
0.09360 
0.11708 
0.11534 
0.15201 
0.21181 
0.14552 
0.18659 
0.10064 
0.22652 
0.17766 
0.06764 
0.04187 
0.23944 
0.15506 
0.05977 
0.10863 
0.05272 
0.10718 
0.08171 
0.09278 
0.13894 
0.06219 
0.14030 
0.12431 
0.07427 
0.05703 
0.19301 
0.12888 
0.08923 
0.11608 
0.13915 
0.14609 
0.12042 
0.10276 
0.11403 
0.21577 
0.17551 
0.07993 
0.12010 
0.17544 
0.18016 
0.18088 
0.10518 
0.12910 
0.09057 
0.10362 
0.09565 
0.06098 
0.11892 
0.18894 
0.12796 
0.12121 
0.08128 
0.14450 
0.05620 
0.07773 
0.08824 
0.04103 
0.08542 
0.11974 
0.10499 
0.14131 

 VECTORS Umean float 
-0.01900 0.07750 -0.08450 
-0.02800 0.06150 -0.05300 
0.03400 0.16200 -0.04250 
0.01900 0.01000 -0.04050 
-0.07800 0.06850 -0.05400 
-0.03950 0.06100 -0.06650 
0.00900 0.08800 -0.11750 
-0.00500 0.09700 -0.06650 
-0.05150 0.02500 -0.04400 
-0.02400 0.11300 -0.08050 
-0.00800 0.12200 -0.06500 
0.02200 0.09450 -0.08250 
-0.05650 -0.00450 -0.01650 
-0.02450 0.12450 -0.01500 
0.05950 0.14150 -0.07950 
0.05950 0.10450 0.04050 
0.02550 0.05100 -0.04250 
-0.06650 0.06000 -0.06050 
-0.03750 0.01700 -0.01700 
0.03650 0.08750 -0.01350 
0.03600 0.04300 -0.04050 
0.01400 0.12950 -0.10400 
0.05000 0.06150 0.05850 
-0.01500 0.09100 -0.06100 
0.04850 0.05650 -0.07200 
0.01350 0.09150 -0.03700 
0.02650 0.01950 -0.05250 
-0.02600 -0.01100 -0.02400 
0.03250 0.15750 0.02500 
0.07400 0.16300 -0.09350 
-0.00750 0.02000 -0.07100 
0.03150 0.07000 -0.09900 
0.04450 0.07700 0.05250 
0.04050 0.07150 -0.01100 
0.03800 -0.00600 -0.02300 
-0.02950 -0.02050 -0.05750 
-0.00550 0.05700 -0.04000 
0.01150 0.03650 -0.06700 
0.12850 0.13450 -0.09200 
0.03950 0.08200 -0.04100 
0.06300 0.18150 -0.11050 
-0.11600 0.03700 -0.03350 
-0.01900 0.03950 -0.03200 
0.05550 0.05950 -0.01150 
-0.05150 0.08600 -0.00350 
-0.05650 0.04850 -0.06100 
0.05500 0.01350 -0.01350 
0.03300 0.08350 -0.04500 
-0.04450 0.08900 -0.05500 
0.04500 0.08500 0.00700 
0.02150 0.05600 -0.01650 
0.09350 0.12900 -0.06200 
-0.00050 0.10450 -0.02600 
-0.04500 0.03900 -0.07500 
0.08400 0.09600 -0.11550 
-0.00200 0.04350 -0.00500 
0.01650 0.04650 0.02850 
0.06350 0.06800 -0.00100 
-0.03750 0.11200 -0.09950 
0.01800 0.06700 -0.02250 
-0.01650 0.10250 -0.04450 
0.04150 0.06750 -0.03650 
0.00950 0.10450 -0.06200 
0.05350 0.12650 -0.09850 
0.02400 0.14050 -0.07800 
-0.00200 0.10550 -0.07250 
0.01800 0.07050 0.01900 
0.04900 0.03800 -0.01600 
0.01300 0.09100 0.02150 
0.01100 0.08850 -0.02400 
0.04400 0.13650 -0.08600 
-0.01800 0.09750 -0.07950 
0.07400 0.14950 -0.00150 
-0.02450 0.09850 -0.16650 
0.05900 0.07550 -0.08150 
-0.00800 0.03950 -0.04200 
0.00750 0.07350 0.01150 
0.03150 0.06600 -0.06600 
0.03100 0.01750 0.01550 
0.11450 0.16550 -0.05300 
0.08550 0.08650 -0.02800 
0.01750 0.11650 -0.08200 
-0.11500 0.10850 -0.02450 
-0.02600 0.15900 0.03300 
-0.04150 0.00900 -0.14950 
0.02850 0.11000 -0.10200 
-0.01400 0.15750 -0.04700 
-0.00100 0.12050 -0.16950 
0.04300 0.09550 0.03200 
0.10400 0.15300 -0.05200 
0.05550 0.17550 0.02000 
-0.05950 0.06700 -0.08000 
0.01650 0.00100 0.02200 
0.02050 0.12650 0.06500 
0.03050 0.20950 -0.09250 
0.00500 0.13150 -0.00900 
0.06300 0.05300 -0.04450 
-0.02200 0.10300 -0.10200 
0.00150 0.10500 0.00450 
-0.03200 0.04150 -0.00300 
-0.01150 0.06750 -0.03000 
0.01700 0.16100 -0.04450 
0.03500 0.12050 0.02300 
-0.05950 0.06900 -0.04550 
0.00950 0.07700 -0.07500 
-0.08600 0.13600 0.01400 
0.01000 0.07350 -0.05900 
-0.02450 0.00850 -0.09850 
-0.00350 0.08150 -0.06700 
0.03100 -0.03350 -0.02750 
0.11400 0.17150 0.02400 
0.01100 0.04500 0.02000 
0.02450 0.03800 0.07600 
0.04150 0.10350 -0.05800 
-0.01650 0.07100 0.00150 
0.03000 0.16200 0.00400 
0.06450 0.16300 -0.02650 
0.08200 0.17650 -0.01550 
-0.02250 0.02950 -0.09200 
0.06450 0.13000 -0.06050 
-0.05750 -0.00550 -0.01400 
0.00600 0.09450 -0.00200 
-0.07300 0.02500 -0.09700 
-0.03800 0.06500 -0.00800 
0.02900 0.02800 -0.03100 
0.00800 0.15150 -0.09350 
0.02950 0.08300 -0.07600 
-0.09450 0.02400 -0.04150 
0.06250 0.08650 -0.05450 
0.08200 0.02950 -0.01350 
-0.00250 0.04400 -0.11000 
0.06200 0.12150 -0.08750 
-0.01150 0.02650 -0.09500 
0.01250 0.15400 0.01300 
0.01250 0.13550 -0.04400 
-0.02250 0.12250 0.13450 
0.05300 0.15000 -0.08700 
0.09700 0.07900 -0.13650 
0.03550 0.07800 -0.10850 
-0.03450 0.03500 -0.07500 
0.01100 0.15700 -0.08100 
-0.04600 0.01100 -0.03100 
-0.00550 0.06700 -0.02850 
0.09750 0.09150 0.08200 
-0.00950 -0.06150 -0.09000 
0.04350 0.10950 0.05800 
0.07050 0.00100 -0.04850 
0.01250 0.07850 -0.07400 
-0.07950 0.08100 -0.03550 
0.02800 0.07300 0.00650 
-0.01100 0.05150 -0.08400 
0.04300 0.03250 -0.02800 
0.01800 0.00650 -0.11700 
-0.05550 0.07150 -0.05150 
0.08300 0.11200 -0.03750 
0.01250 0.11100 -0.06500 
-0.01500 0.01800 -0.02600 
0.03700 -0.03450 -0.07300 
0.04900 0.01700 -0.02450 
0.04300 0.09500 -0.06300 
-0.01350 0.05350 -0.03700 
-0.04500 0.03600 0.00550 
-0.06750 -0.00750 -0.09350 
-0.00550 0.09950 -0.05450 
0.04050 0.05150 -0.05000 
0.04600 0.06050 0.05750 
0.00550 0.07200 0.05050 
-0.02150 0.05250 -0.01800 
-0.04350 0.01300 -0.04650 
0.02850 0.09150 0.10900 
0.00850 0.02400 -0.02900 
0.14050 0.15200 -0.07800 
-0.05850 0.03300 -0.04900 
-0.02650 0.04000 -0.07950 
0.02300 0.13700 -0.07350 
-0.06900 0.02400 -0.12500 
0.03600 0.17200 -0.03700 
0.11500 0.18500 -0.09450 
0.00400 0.16550 -0.00450 
-0.03300 0.05150 -0.02950 
-0.00250 0.03200 -0.04850 
0.07500 0.12050 -0.06000 
0.03000 0.13750 0.03150 
0.01500 0.03250 -0.03150 
0.06150 0.13450 0.01350 
0.03900 0.18150 -0.00950 
0.02350 0.05200 -0.00300 
-0.00800 0.03750 -0.05550 
-0.02300 0.07450 -0.06350 
-0.03550 -0.00100 -0.04600 
0.05400 0.10700 0.06800 
0.12400 0.13550 0.00100 
0.04200 0.10800 0.08900 
-0.01750 0.00100 0.01500 
0.09000 0.03250 0.08550 
0.03550 0.11100 -0.08400 
0.02700 0.07350 -0.01950 
-0.05500 0.06100 -0.07400 
0.03250 0.05800 -0.06550 
-0.03400 0.04750 -0.02900 
0.01900 0.16300 0.02000 
0.08250 0.05300 -0.09750 
-0.08750 0.03300 -0.04100 
0.05600 0.13000 -0.10900 
0.06850 0.08800 -0.09450 
0.01400 0.04500 -0.01300 
-0.05450 -0.00500 -0.07800 
0.08100 0.08700 0.00250 
0.03750 0.15400 -0.10850 
0.08750 0.09350 -0.05800 
-0.03750 0.07400 -0.04500 
0.13250 0.16850 -0.10550 
0.01850 0.07600 -0.08850 
0.06650 0.13450 -0.06700 
0.00550 0.07650 -0.05700 
-0.03900 -0.04100 -0.01900 
0.01950 0.11950 0.04650 
0.02450 0.10150 -0.01150 
0.05250 0.07650 0.04600 
0.04650 0.06700 0.07850 
0.03450 0.11900 0.00700 
-0.03550 0.02650 -0.03950 
0.06700 0.10700 -0.03750 
0.04750 0.01500 -0.04050 
0.05400 0.09300 -0.04150 
-0.00850 0.05350 0.04250 
-0.05150 -0.01600 -0.09500 
0.05950 0.10700 -0.10050 
0.06050 0.11700 -0.07200 
-0.06250 0.03400 -0.10700 
0.06100 0.10150 -0.10500 
0.02500 0.01750 -0.07700 
0.00150 0.07800 0.00350 
0.06200 0.08800 -0.03350 
-0.02500 0.07550 -0.01950 
0.10150 0.12500 -0.05150 
0.09100 0.11950 0.05800 
-0.00600 0.16650 -0.05550 
-0.03450 0.11450 -0.07250 
0.03700 0.08000 0.02000 
0.05550 0.05600 -0.12450 
-0.10000 0.08600 -0.02550 
0.09300 0.02900 0.06650 
-0.06300 0.11950 -0.02100 
-0.02950 0.02550 -0.08400 
-0.09900 -0.00350 -0.04300 
-0.01450 0.02550 -0.00650 
0.02150 0.01100 -0.02050 
0.04250 0.15800 -0.07750 
-0.00900 0.04000 0.00150 
0.03700 0.05950 -0.08050 
0.03850 0.09900 -0.03050 
0.00650 0.08550 -0.05250 
-0.00900 0.12050 -0.06400 
-0.04250 0.05350 -0.00000 
0.08400 0.06100 -0.11350 
0.00850 0.09150 0.01250 
-0.03300 0.10950 -0.01600 
-0.00500 0.12800 -0.04450 
0.01300 0.10300 0.03450 
0.04450 0.11700 -0.00450 
0.09100 0.15450 -0.09900 
-0.05450 -0.00100 -0.14350 
0.06450 0.16050 0.00100 
0.03750 0.07600 -0.06050 
0.02500 0.12850 -0.04850 
0.10750 0.09500 -0.02450 
0.04200 0.06600 -0.02500 
0.01300 0.07850 0.02300 
-0.07800 0.10750 -0.01200 
0.01400 0.01800 -0.07250 
-0.01750 0.05150 -0.06700 
-0.00350 0.10050 -0.02200 
0.00750 0.00300 0.03800 
0.03850 0.05650 -0.00250 
-0.09250 0.02700 -0.08950 
-0.02300 0.00450 -0.04350 
0.00850 0.06250 -0.02250 
0.03550 0.05100 -0.04750 
-0.01250 0.00450 -0.03800 
0.03500 0.04300 -0.01900 
0.01400 0.07550 -0.05100 
0.05050 0.09100 0.09050 
-0.00150 0.15050 0.06850 
0.04400 0.10750 -0.05950 
0.06750 0.12950 -0.15200 
-0.00900 0.06700 0.12650 
-0.05050 -0.05950 -0.04250 
0.00250 0.07750 0.02250 
-0.08350 0.02400 -0.08150 
0.01100 -0.00200 -0.04700 
0.00650 0.15550 0.03350 
-0.04700 0.10100 0.00350 
0.02750 0.07100 -0.02700 
-0.06000 0.07450 -0.18150 
-0.03550 -0.01450 0.02050 
0.05400 0.17500 0.04700 
0.03400 0.17500 0.07900 
0.02100 0.08300 0.02900 
-0.00650 0.01600 -0.01350 
0.03950 0.13750 -0.01150 
0.08050 0.01650 -0.09450 
-0.04000 0.07100 -0.03800 
0.07100 0.10150 -0.16900 
-0.00700 -0.02750 -0.09000 
0.00900 0.07300 -0.04350 
-0.01100 0.06000 -0.01100 
0.04000 0.03500 -0.06000 
0.00500 0.04350 -0.09650 
0.02300 0.06350 -0.08400 
0.06100 0.09550 -0.04350 
-0.03200 0.06150 -0.02600 
0.14500 0.09900 -0.04000 
0.01200 0.04650 0.00950 
0.02600 0.15200 -0.02450 
0.05100 0.10800 -0.03300 
0.01750 0.14600 -0.03900 
0.00950 0.06200 -0.04450 
0.07600 0.22350 -0.13050 
0.01450 0.08650 -0.13850 
0.08200 0.14300 -0.04450 
0.00700 0.05750 -0.00750 
0.12250 0.17700 -0.05400 
0.03400 0.09300 0.01200 
-0.03400 0.06950 -0.09650 
-0.03600 0.05850 -0.06600 
0.01600 0.00800 -0.11800 
-0.11850 0.10600 0.01350 
-0.04500 -0.01950 -0.03250 
0.02000 0.12100 0.01150 
-0.04400 0.07400 0.01150 
0.01000 0.13750 -0.08650 
0.07200 0.17500 -0.05000 
-0.02700 0.13000 -0.00250 
0.03800 0.02300 -0.14350 
-0.00350 0.05150 -0.13500 
0.05100 0.10500 -0.01450 
-0.01450 0.09900 -0.07200 
-0.01900 0.04200 -0.03950 
-0.01850 -0.03900 -0.03400 
-0.02750 0.00550 -0.02450 
-0.07400 0.03650 -0.06250 
0.02850 0.19100 -0.09450 
0.02700 0.13800 -0.04050 
0.03250 0.10150 -0.07200 