# vtk DataFile Version 2.0 
Xm, Ym, Zm, Uvecs, timestep 10179 
ASCII 
 
DATASET POLYDATA POINTS 446 float 
  3.965   3.797 -70.385 
 -7.054   7.830 -70.756 
  2.144   9.824 -71.608 
  2.966  -4.562 -70.173 
  0.219   5.016 -68.737 
  2.077   3.045 -70.082 
  7.114   5.979 -71.912 
  3.668   4.578 -69.776 
  3.487  10.061 -67.073 
 -7.200   3.752 -72.658 
  3.912   1.776 -69.864 
 10.642  -0.375 -71.581 
  1.776   5.677 -71.778 
 -4.574  10.342 -68.198 
  1.960   7.082 -69.731 
 10.958   3.724 -69.067 
  2.197   9.947 -75.392 
 -4.402  12.463 -71.630 
 -1.250   6.194 -73.428 
 15.392  -3.803 -69.627 
  6.681  11.817 -69.934 
  1.319  -7.431 -70.230 
-10.432  -2.399 -66.945 
 -9.057  -5.851 -69.490 
  7.992  -0.622 -71.213 
 -3.125 -12.493 -69.621 
 -2.659  -2.018 -65.526 
 -8.181   9.153 -70.697 
  0.740  -8.732 -71.435 
 -6.686   5.963 -72.882 
 -1.086   6.252 -71.596 
 -1.841  -7.072 -67.823 
 -1.391  -2.260 -73.013 
  1.200   2.697 -73.632 
 -0.058  -2.963 -69.312 
 10.377   7.329 -70.070 
-12.448   6.372 -73.608 
 -6.995   9.091 -64.117 
 -2.628   6.149 -70.976 
  1.913   0.236 -72.093 
 -7.650   8.805 -74.518 
  2.172  -4.638 -71.907 
 -0.349  -8.834 -71.769 
  8.870   6.781 -70.739 
 10.174  10.017 -68.518 
 -1.283   4.309 -71.136 
-11.456  11.443 -70.215 
  2.533  -0.137 -65.169 
 -3.338  -3.974 -68.110 
  5.646 -10.244 -72.194 
  2.688   6.585 -64.364 
  0.202  -4.479 -72.266 
 -0.249   6.013 -62.731 
-10.050   4.988 -71.474 
 -6.184 -10.512 -72.796 
  3.414 -11.127 -68.469 
 -6.663  10.952 -67.123 
  2.203   8.453 -74.500 
 -3.026  -7.998 -61.867 
 -5.809  -5.130 -67.630 
 12.910  -5.152 -70.510 
 -7.830   3.099 -67.138 
 -4.474  -7.662 -69.891 
  2.636  -4.587 -67.168 
 12.631  -6.493 -63.212 
 -5.300   7.124 -64.651 
  3.961   4.606 -68.032 
  3.939   6.383 -70.032 
 -8.183  -0.408 -75.582 
  1.324  -8.188 -66.108 
  0.808  -2.426 -66.739 
  5.521  10.317 -67.811 
 -2.881  -8.796 -68.586 
  0.902   2.850 -67.739 
  4.033   0.447 -72.380 
  9.151  -7.364 -72.379 
 15.214   5.582 -69.980 
  9.000 -11.405 -69.096 
  7.316   9.698 -66.774 
 12.783  -3.580 -68.181 
 -8.573  -4.413 -66.767 
-11.225  -0.394 -69.579 
  7.698  -9.665 -74.750 
  7.080   6.974 -70.773 
  0.793   3.223 -67.302 
 -5.982  -1.664 -64.876 
  2.835   5.135 -71.084 
 -3.796  -3.950 -71.547 
 -1.321   7.509 -64.703 
 -4.866  -1.192 -64.636 
 -0.345  -5.453 -71.255 
  3.617  -0.987 -65.878 
  4.803   2.617 -67.030 
  4.636  -8.338 -63.534 
  2.306   6.002 -68.906 
 -1.434  -9.247 -70.302 
  6.931  -0.871 -65.424 
 -0.628   3.023 -62.470 
 -1.288   3.135 -67.447 
 -4.331   3.711 -64.090 
 -2.422   7.276 -74.054 
 -2.635   3.247 -64.176 
 16.069   7.605 -71.376 
 -9.457   9.500 -67.808 
 12.994   2.805 -73.413 
  2.377  -1.554 -70.007 
 -3.714   7.593 -65.052 
-11.149  -3.349 -73.204 
 -8.143   4.082 -72.983 
 -9.401   9.153 -65.846 
 13.760   0.514 -68.255 
 -3.885   0.864 -62.345 
  6.199  -9.702 -73.612 
-11.669   5.162 -68.508 
  8.354   6.429 -67.433 
  9.212   3.270 -74.225 
  6.952   2.720 -62.927 
  9.059  -2.703 -62.751 
  6.777  -4.299 -68.489 
-11.480   1.583 -63.105 
-10.605  -8.950 -67.182 
 -5.966  11.855 -71.510 
  5.589   5.059 -64.329 
  4.359   4.381 -64.232 
 -1.036 -12.725 -69.424 
 -0.629   5.820 -68.927 
  7.950   6.806 -70.654 
 -7.458  11.230 -73.243 
  3.936  -2.494 -61.627 
 13.505  -6.422 -70.000 
 -0.577   4.778 -58.903 
 -7.190  12.459 -64.816 
 -5.896  -1.597 -66.231 
 -0.760  -0.778 -65.921 
-11.369   5.890 -66.199 
 14.488   2.285 -66.567 
 -5.159  -8.997 -62.090 
 -6.963  -3.842 -70.331 
  4.904   6.419 -62.700 
  8.602 -10.154 -63.207 
  4.004  -5.212 -67.014 
  7.181   1.521 -68.659 
 -3.511   2.946 -74.465 
 -1.648  10.503 -72.418 
  5.921  -0.865 -64.723 
 -8.466  -7.085 -70.642 
 -9.874  11.975 -71.551 
 -1.889   0.618 -67.701 
 -1.715   9.520 -71.160 
-10.483   7.931 -66.065 
 -0.239   2.067 -70.369 
-11.986  -6.082 -70.640 
  7.176  -9.198 -64.764 
 -6.825  10.793 -62.551 
 11.877   1.144 -64.916 
 11.615   8.564 -71.132 
 -1.216  -2.758 -63.648 
  4.422   1.482 -61.145 
  3.915  -8.864 -64.599 
  5.924   2.364 -62.805 
 -2.157   8.423 -73.095 
 15.400   1.370 -68.012 
  1.684   6.019 -63.951 
-10.290   4.641 -62.039 
 -5.053   2.035 -72.194 
 -9.630  -1.473 -62.099 
  6.587  11.889 -67.974 
  8.020  -8.096 -63.727 
-11.124  12.280 -72.621 
  1.173  -2.545 -64.993 
-12.545   4.229 -68.105 
 10.531  -8.783 -64.215 
  5.399  11.108 -66.792 
 -2.768 -10.361 -69.851 
 12.414  10.606 -66.811 
-14.262  -5.808 -69.791 
  3.088  -9.554 -72.980 
  7.620   2.703 -63.197 
  3.934   7.447 -65.188 
  6.320   0.238 -64.291 
  8.212  -8.259 -71.680 
-12.471   9.832 -69.463 
-11.144  12.881 -68.716 
  6.901   0.231 -65.240 
 -1.970   6.277 -74.510 
 11.854   5.665 -72.917 
  8.794 -12.896 -68.721 
  0.425   2.125 -69.208 
 -3.200  10.088 -65.103 
 13.640   6.245 -70.535 
  4.758   9.777 -64.320 
 11.593 -10.425 -73.514 
-12.512  -2.439 -77.310 
 12.468 -10.022 -73.216 
  7.918   4.994 -63.910 
 13.546  10.992 -72.915 
 10.078 -11.002 -69.596 
  9.617   8.758 -66.543 
  9.726 -10.289 -72.514 
 -9.143   1.162 -61.200 
-11.353  -3.736 -65.212 
  8.197 -12.444 -70.478 
-15.602   5.698 -75.484 
  7.545  -6.564 -65.608 
 -7.064  -3.108 -63.535 
  9.891   0.066 -71.582 
  3.328   3.375 -63.138 
 10.147   6.213 -61.938 
 14.049  12.817 -67.883 
 -1.513   1.222 -60.361 
 -6.414  -5.383 -77.219 
 11.224  -1.579 -65.936 
 12.660 -10.021 -68.852 
 -6.973   6.441 -68.501 
 10.204  -1.898 -64.360 
 12.154   1.761 -66.627 
 -9.211  -9.180 -67.933 
  8.492  -4.361 -61.850 
 11.711 -11.963 -73.778 
  3.667  -9.476 -72.314 
  5.782  -0.784 -74.746 
  9.130   1.519 -72.482 
  7.594   9.151 -65.292 
 -8.277 -11.480 -69.608 
  5.471  -7.336 -73.362 
-12.103   2.283 -64.055 
  5.239  12.118 -73.138 
 -8.063   0.892 -64.988 
-11.003  -7.917 -68.285 
 -2.022  11.255 -60.206 
 10.390 -12.590 -70.726 
 -9.489   8.297 -63.936 
  6.775  -8.149 -71.907 
 -7.449  10.459 -68.198 
  4.043  12.231 -69.927 
 13.130   9.063 -68.505 
 10.919  -8.707 -73.006 
 -6.159   5.250 -67.935 
-11.825   6.503 -70.607 
 14.605   1.502 -63.733 
  1.525   6.620 -69.862 
  5.916  -1.293 -69.118 
 -9.426  -3.696 -68.380 
 12.110   8.954 -67.081 
 13.001  -0.426 -73.807 
 -2.129  -0.958 -67.773 
  3.053 -11.347 -70.508 
-10.865  -7.003 -74.254 
 14.603 -12.776 -70.690 
 10.606   7.144 -74.513 
  4.598  -6.643 -71.272 
  5.133  -5.394 -63.111 
 -9.757  11.434 -64.765 
  3.914  10.927 -64.073 
  3.897  -4.194 -64.910 
 11.668   2.749 -65.589 
  3.303   0.242 -64.511 
 14.119  -8.328 -71.245 
 -2.748   2.136 -69.878 
  8.852  -9.675 -69.731 
 -2.420  -1.340 -66.295 
  5.030   3.859 -74.600 
 11.896   2.130 -72.356 
 -6.907  -0.174 -65.867 
  3.930  -6.812 -70.358 
  7.471   3.846 -71.084 
 -7.778   7.777 -69.657 
 -6.898   6.838 -59.143 
  9.544  -8.649 -61.974 
  3.194  -5.104 -73.561 
  7.638  -4.192 -66.011 
  7.175   1.021 -69.700 
 -7.061   6.148 -70.078 
  0.114  -4.765 -68.311 
  3.716   7.245 -70.564 
  0.413 -11.072 -67.665 
 -0.999  -6.605 -65.912 
 12.788  -8.751 -64.208 
 -6.138  -9.547 -72.026 
  5.306  -5.224 -65.281 
 13.418  -5.579 -73.347 
  2.213 -10.182 -61.751 
 -1.466 -12.223 -69.531 
 -8.551  -0.944 -67.201 
 10.346   9.390 -70.734 
  1.028  -0.559 -61.784 
 -0.191  11.153 -76.624 
  9.430   8.902 -73.097 
 -7.210  -0.605 -65.975 
 -9.453  -6.278 -61.723 
  1.513  -0.234 -62.818 
 -1.382 -11.812 -69.123 
 -5.539  -5.582 -72.261 
 -9.641   4.986 -69.329 
 -5.258   6.434 -61.257 
 -8.554   2.680 -76.356 
  5.733  -0.495 -66.850 
  0.541   8.555 -63.673 
  0.053 -10.491 -68.819 
-12.159  -7.833 -62.645 
 -4.842   7.674 -65.049 
-11.035  -4.735 -60.564 
 12.201   9.271 -64.046 
  6.287  12.131 -61.950 
 16.461   7.747 -71.002 
 -4.584  -4.713 -60.214 
  6.914 -11.660 -64.928 
 13.387  -5.380 -73.422 
 -0.547   7.097 -59.805 
 -9.303  -8.936 -71.171 
  4.345  -9.790 -62.099 
  4.166   0.250 -58.727 
 -1.748   0.314 -59.557 
 -4.795 -10.301 -63.413 
 10.618   3.042 -70.817 
 10.172  -6.165 -67.428 
  0.470 -10.097 -67.303 
 -3.740  -6.273 -59.380 
 -0.839  -0.324 -75.055 
 -2.437  -8.180 -68.479 
-11.172   9.166 -69.813 
 -5.322  -7.191 -60.226 
 14.047   6.223 -62.174 
  4.215   2.221 -67.769 
  9.655  -4.817 -73.197 
-14.838  11.634 -76.107 
-14.678  -1.635 -72.754 
 -2.932  -5.978 -69.804 
 -7.208  -3.728 -67.415 
 -8.671  -2.279 -62.002 
  8.332   1.349 -64.023 
 -6.255  -2.851 -67.611 
  6.965  10.682 -69.061 
 -5.290   2.737 -74.224 
 -7.991  -0.853 -59.524 
  8.508  -5.458 -61.428 
 10.739  -0.310 -59.415 
-10.255   0.611 -62.999 
 -5.692   2.939 -59.794 
 -4.656   0.386 -58.381 
 -8.311 -10.852 -59.425 
  4.838   0.031 -62.501 
-13.416 -10.894 -69.631 
  5.006  -5.380 -71.657 
  0.608   6.243 -73.174 
-13.483   5.386 -69.358 
 -4.518 -12.579 -69.454 
 -2.283   7.079 -61.810 
  4.342   5.488 -76.185 
  2.030  -6.088 -66.551 
 -7.944  -6.339 -67.206 
  1.336  -9.076 -60.394 
 -6.135   4.681 -72.876 
 15.792   9.378 -70.025 
 -7.362   8.264 -75.749 
  6.453  -6.476 -63.078 
 -6.974  -4.069 -63.807 
  1.783  -6.935 -62.069 
 -8.155   2.756 -59.075 
 -8.091   1.602 -61.644 
 -0.667 -11.661 -66.004 
 -0.834  -9.653 -68.597 
  2.595  -2.567 -72.877 
 11.542   7.236 -72.035 
  6.060   9.732 -71.261 
 -7.877  -2.162 -76.051 
  5.332  -5.540 -74.457 
-12.399  -8.330 -64.970 
  7.983   1.185 -74.713 
  1.179 -12.200 -60.154 
 -8.492  12.102 -64.660 
 13.883 -10.396 -70.705 
 11.610   4.140 -64.554 
  1.469   4.288 -65.866 
  3.130 -12.017 -60.288 
 18.043  -4.203 -69.464 
 17.945  -8.651 -67.357 
 -5.553   8.213 -73.991 
 11.466  12.371 -64.912 
 10.691  -2.555 -62.724 
  5.822   1.857 -66.254 
  9.958  -3.952 -64.719 
 -4.322  -0.118 -61.999 
 -1.293   4.375 -62.679 
 13.692   6.219 -72.676 
  9.302   0.639 -68.523 
 -1.724  -9.781 -65.176 
 -5.238   2.113 -64.662 
  0.538   9.279 -70.613 
 16.909   7.257 -73.672 
 -7.818   4.971 -61.105 
 -4.629  -6.700 -74.628 
 -4.219  11.744 -70.031 
 12.897  13.085 -66.478 
  4.006   9.334 -69.267 
  3.954  -0.171 -58.938 
  1.603  -1.533 -64.909 
-13.717   0.700 -71.787 
 16.458  -2.366 -69.154 
 16.374   0.042 -65.618 
 11.888  -6.786 -60.897 
-13.779   1.411 -70.849 
-12.982  13.153 -64.321 
 -2.883  -2.376 -75.516 
 -4.726  -1.738 -72.840 
 -0.897   0.983 -72.224 
  7.202  -5.425 -69.108 
-12.221  -0.125 -61.567 
 -7.723  -6.606 -65.771 
  2.692  -7.324 -63.909 
 13.702   7.711 -63.140 
 10.374  -8.993 -58.627 
 -2.173  -0.259 -71.353 
 16.072  -7.954 -64.999 
 -2.099   7.367 -68.785 
  3.112 -11.605 -75.876 
 -7.273   9.115 -71.636 
 16.156 -11.051 -65.096 
  1.843  11.724 -64.641 
 -0.292   0.736 -72.977 
  3.781   6.133 -65.633 
  1.373  -4.350 -69.099 
 -6.368 -10.431 -68.144 
  2.689  -0.825 -75.124 
  0.810   2.628 -64.255 
-12.819   4.408 -69.210 
 -2.676  -1.448 -63.876 
  2.288  10.633 -68.730 
 13.081  -5.332 -69.272 
-10.479   6.863 -63.579 
 -0.215   1.718 -60.854 
  0.145  -9.668 -61.852 
 -2.213  -2.044 -74.828 
 13.358 -13.442 -65.906 
 -9.082  10.861 -74.260 
  7.467 -12.633 -73.805 
  0.817 -11.460 -65.990 
 -9.552  -1.860 -74.206 
-13.650  -4.214 -63.673 
-10.945 -10.673 -63.490 
  0.232  -6.561 -66.878 
  7.060  -3.876 -67.915 
 -3.379   5.487 -66.702 
 12.961   0.159 -73.138 
 -8.203 -10.521 -67.463 
  6.967   7.156 -71.749 

 VERTICES 446 892 
1 0 
1 1 
1 2 
1 3 
1 4 
1 5 
1 6 
1 7 
1 8 
1 9 
1 10 
1 11 
1 12 
1 13 
1 14 
1 15 
1 16 
1 17 
1 18 
1 19 
1 20 
1 21 
1 22 
1 23 
1 24 
1 25 
1 26 
1 27 
1 28 
1 29 
1 30 
1 31 
1 32 
1 33 
1 34 
1 35 
1 36 
1 37 
1 38 
1 39 
1 40 
1 41 
1 42 
1 43 
1 44 
1 45 
1 46 
1 47 
1 48 
1 49 
1 50 
1 51 
1 52 
1 53 
1 54 
1 55 
1 56 
1 57 
1 58 
1 59 
1 60 
1 61 
1 62 
1 63 
1 64 
1 65 
1 66 
1 67 
1 68 
1 69 
1 70 
1 71 
1 72 
1 73 
1 74 
1 75 
1 76 
1 77 
1 78 
1 79 
1 80 
1 81 
1 82 
1 83 
1 84 
1 85 
1 86 
1 87 
1 88 
1 89 
1 90 
1 91 
1 92 
1 93 
1 94 
1 95 
1 96 
1 97 
1 98 
1 99 
1 100 
1 101 
1 102 
1 103 
1 104 
1 105 
1 106 
1 107 
1 108 
1 109 
1 110 
1 111 
1 112 
1 113 
1 114 
1 115 
1 116 
1 117 
1 118 
1 119 
1 120 
1 121 
1 122 
1 123 
1 124 
1 125 
1 126 
1 127 
1 128 
1 129 
1 130 
1 131 
1 132 
1 133 
1 134 
1 135 
1 136 
1 137 
1 138 
1 139 
1 140 
1 141 
1 142 
1 143 
1 144 
1 145 
1 146 
1 147 
1 148 
1 149 
1 150 
1 151 
1 152 
1 153 
1 154 
1 155 
1 156 
1 157 
1 158 
1 159 
1 160 
1 161 
1 162 
1 163 
1 164 
1 165 
1 166 
1 167 
1 168 
1 169 
1 170 
1 171 
1 172 
1 173 
1 174 
1 175 
1 176 
1 177 
1 178 
1 179 
1 180 
1 181 
1 182 
1 183 
1 184 
1 185 
1 186 
1 187 
1 188 
1 189 
1 190 
1 191 
1 192 
1 193 
1 194 
1 195 
1 196 
1 197 
1 198 
1 199 
1 200 
1 201 
1 202 
1 203 
1 204 
1 205 
1 206 
1 207 
1 208 
1 209 
1 210 
1 211 
1 212 
1 213 
1 214 
1 215 
1 216 
1 217 
1 218 
1 219 
1 220 
1 221 
1 222 
1 223 
1 224 
1 225 
1 226 
1 227 
1 228 
1 229 
1 230 
1 231 
1 232 
1 233 
1 234 
1 235 
1 236 
1 237 
1 238 
1 239 
1 240 
1 241 
1 242 
1 243 
1 244 
1 245 
1 246 
1 247 
1 248 
1 249 
1 250 
1 251 
1 252 
1 253 
1 254 
1 255 
1 256 
1 257 
1 258 
1 259 
1 260 
1 261 
1 262 
1 263 
1 264 
1 265 
1 266 
1 267 
1 268 
1 269 
1 270 
1 271 
1 272 
1 273 
1 274 
1 275 
1 276 
1 277 
1 278 
1 279 
1 280 
1 281 
1 282 
1 283 
1 284 
1 285 
1 286 
1 287 
1 288 
1 289 
1 290 
1 291 
1 292 
1 293 
1 294 
1 295 
1 296 
1 297 
1 298 
1 299 
1 300 
1 301 
1 302 
1 303 
1 304 
1 305 
1 306 
1 307 
1 308 
1 309 
1 310 
1 311 
1 312 
1 313 
1 314 
1 315 
1 316 
1 317 
1 318 
1 319 
1 320 
1 321 
1 322 
1 323 
1 324 
1 325 
1 326 
1 327 
1 328 
1 329 
1 330 
1 331 
1 332 
1 333 
1 334 
1 335 
1 336 
1 337 
1 338 
1 339 
1 340 
1 341 
1 342 
1 343 
1 344 
1 345 
1 346 
1 347 
1 348 
1 349 
1 350 
1 351 
1 352 
1 353 
1 354 
1 355 
1 356 
1 357 
1 358 
1 359 
1 360 
1 361 
1 362 
1 363 
1 364 
1 365 
1 366 
1 367 
1 368 
1 369 
1 370 
1 371 
1 372 
1 373 
1 374 
1 375 
1 376 
1 377 
1 378 
1 379 
1 380 
1 381 
1 382 
1 383 
1 384 
1 385 
1 386 
1 387 
1 388 
1 389 
1 390 
1 391 
1 392 
1 393 
1 394 
1 395 
1 396 
1 397 
1 398 
1 399 
1 400 
1 401 
1 402 
1 403 
1 404 
1 405 
1 406 
1 407 
1 408 
1 409 
1 410 
1 411 
1 412 
1 413 
1 414 
1 415 
1 416 
1 417 
1 418 
1 419 
1 420 
1 421 
1 422 
1 423 
1 424 
1 425 
1 426 
1 427 
1 428 
1 429 
1 430 
1 431 
1 432 
1 433 
1 434 
1 435 
1 436 
1 437 
1 438 
1 439 
1 440 
1 441 
1 442 
1 443 
1 444 
1 445 
POINT_DATA 446 
SCALARS MeanU double 1 
LOOKUP_TABLE default
0.05267 
0.11609 
0.06001 
0.23637 
0.05418 
0.09940 
0.17009 
0.09898 
0.09583 
0.14565 
0.17688 
0.21523 
0.14612 
0.12729 
0.06819 
0.11386 
0.08828 
0.20766 
0.12345 
0.08111 
0.17660 
0.25120 
0.13878 
0.18109 
0.12676 
0.17168 
0.20864 
0.13871 
0.11141 
0.22311 
0.15906 
0.10274 
0.21598 
0.19039 
0.23939 
0.11036 
0.17580 
0.23885 
0.12278 
0.19896 
0.12307 
0.27344 
0.12470 
0.25856 
0.04381 
0.13645 
0.11217 
0.17494 
0.16076 
0.13990 
0.13630 
0.22544 
0.05315 
0.13593 
0.12798 
0.06182 
0.15079 
0.08688 
0.24106 
0.13436 
0.14158 
0.17799 
0.15522 
0.25382 
0.24937 
0.08961 
0.05362 
0.07671 
0.08568 
0.11715 
0.17832 
0.14864 
0.19059 
0.16247 
0.24168 
0.08627 
0.25037 
0.06552 
0.12324 
0.18622 
0.15047 
0.23784 
0.09445 
0.09220 
0.13455 
0.19794 
0.12860 
0.27245 
0.11364 
0.17927 
0.21419 
0.07607 
0.09052 
0.11791 
0.16567 
0.11156 
0.16987 
0.05275 
0.13634 
0.06506 
0.15069 
0.29578 
0.20299 
0.05222 
0.10012 
0.24461 
0.10491 
0.26291 
0.16623 
0.18456 
0.10029 
0.12388 
0.10773 
0.11642 
0.09367 
0.15100 
0.09158 
0.30294 
0.24064 
0.05590 
0.14641 
0.15860 
0.14767 
0.09918 
0.09546 
0.11936 
0.16347 
0.19986 
0.18655 
0.13389 
0.05779 
0.12852 
0.23116 
0.17858 
0.15459 
0.19234 
0.09547 
0.12792 
0.11287 
0.07439 
0.15311 
0.05740 
0.15746 
0.10441 
0.19288 
0.16424 
0.09665 
0.19643 
0.12076 
0.15692 
0.20461 
0.15494 
0.13521 
0.12815 
0.17688 
0.10962 
0.19407 
0.11337 
0.11240 
0.06478 
0.13767 
0.20253 
0.12398 
0.09999 
0.11945 
0.25374 
0.19649 
0.12604 
0.13359 
0.19853 
0.15067 
0.07930 
0.06255 
0.11555 
0.07694 
0.09158 
0.17718 
0.12461 
0.14277 
0.20361 
0.09283 
0.15425 
0.06022 
0.15419 
0.15958 
0.14507 
0.07754 
0.18065 
0.19468 
0.10684 
0.12300 
0.11297 
0.20698 
0.06839 
0.07637 
0.14986 
0.11996 
0.06812 
0.12564 
0.11948 
0.15962 
0.06800 
0.20405 
0.14032 
0.13459 
0.19705 
0.17635 
0.08212 
0.07696 
0.11467 
0.10528 
0.12809 
0.04669 
0.10719 
0.10770 
0.11629 
0.17949 
0.23223 
0.16057 
0.24627 
0.22472 
0.10625 
0.13428 
0.13867 
0.12250 
0.13854 
0.20816 
0.20149 
0.12840 
0.15788 
0.06806 
0.11365 
0.12441 
0.12798 
0.23155 
0.13059 
0.20119 
0.22364 
0.17320 
0.16697 
0.09500 
0.09279 
0.12447 
0.11891 
0.27399 
0.22810 
0.07407 
0.02091 
0.06058 
0.17193 
0.08567 
0.14080 
0.10713 
0.09121 
0.24778 
0.12705 
0.05104 
0.08312 
0.21373 
0.03861 
0.21179 
0.22494 
0.17715 
0.19699 
0.08512 
0.14123 
0.06583 
0.08805 
0.14015 
0.13566 
0.21022 
0.08196 
0.07117 
0.13464 
0.06399 
0.19500 
0.21457 
0.09783 
0.16090 
0.21146 
0.20096 
0.09159 
0.10322 
0.17141 
0.18088 
0.04626 
0.11458 
0.12213 
0.17632 
0.09863 
0.05736 
0.12135 
0.19613 
0.09890 
0.19037 
0.12908 
0.13829 
0.12660 
0.13286 
0.08079 
0.09382 
0.12478 
0.08530 
0.20860 
0.18067 
0.21155 
0.11306 
0.23737 
0.11015 
0.19893 
0.13928 
0.10123 
0.07160 
0.12645 
0.09355 
0.05545 
0.25012 
0.14378 
0.16030 
0.15296 
0.09168 
0.22787 
0.12450 
0.13672 
0.18400 
0.19745 
0.24201 
0.26972 
0.20813 
0.32565 
0.08883 
0.19461 
0.05414 
0.18333 
0.19693 
0.21812 
0.19930 
0.11530 
0.08056 
0.12211 
0.15911 
0.16523 
0.16931 
0.18673 
0.13150 
0.10540 
0.16154 
0.17547 
0.18841 
0.10365 
0.17556 
0.14846 
0.13143 
0.17866 
0.15411 
0.14970 
0.16586 
0.22622 
0.11975 
0.10190 
0.25148 
0.15004 
0.14104 
0.14180 
0.12573 
0.09651 
0.15538 
0.17838 
0.18407 
0.06017 
0.10148 
0.03096 
0.06347 
0.07484 
0.08857 
0.14853 
0.12558 
0.14458 
0.07114 
0.25620 
0.07025 
0.30629 
0.07984 
0.11867 
0.18163 
0.15463 
0.06570 
0.12731 
0.04541 
0.32529 
0.13432 
0.15977 
0.18121 
0.10056 
0.09997 
0.07590 
0.10058 
0.27498 
0.15592 
0.14741 
0.23535 
0.23906 
0.32407 
0.10357 
0.22584 
0.27987 
0.11264 
0.16122 
0.08061 
0.16264 
0.15966 
0.16394 
0.33474 
0.05972 
0.11629 
0.11223 
0.14577 
0.10706 
0.11398 
0.26477 
0.12900 
0.16345 
0.16749 
0.32667 
0.07656 
0.14444 
0.07778 
0.27411 
0.27861 
0.22719 
0.12289 
0.17122 
0.11670 
0.06211 
0.11764 
0.14899 
0.21422 
0.15980 
0.12953 
0.15496 
0.13938 
0.26153 
0.14597 
0.31384 
0.08010 
0.07496 

 VECTORS Umean float 
0.00800 -0.00250 -0.05200 
-0.01400 0.07500 -0.08750 
-0.05450 -0.01300 -0.02150 
-0.02300 0.04450 -0.23100 
-0.00950 0.04600 -0.02700 
0.04300 -0.03500 -0.08250 
0.11600 0.06900 -0.10350 
0.01600 -0.02050 -0.09550 
-0.08700 -0.03850 0.01150 
0.08950 0.08050 -0.08200 
0.02500 -0.07000 -0.16050 
0.09100 0.02450 -0.19350 
0.00450 -0.03200 -0.14250 
-0.11800 0.04400 -0.01850 
-0.01800 -0.02050 -0.06250 
0.00900 0.06850 -0.09050 
-0.08100 -0.03450 -0.00650 
-0.18850 0.08000 -0.03450 
-0.05400 0.06500 -0.09000 
-0.05850 0.00450 -0.05600 
-0.04400 -0.17050 0.01350 
0.19500 0.01650 -0.15750 
0.06750 0.06150 -0.10450 
0.06000 0.14100 -0.09650 
0.04500 0.00100 -0.11850 
0.14650 0.07100 -0.05450 
0.01500 0.10000 -0.18250 
-0.05350 0.01100 -0.12750 
0.07950 0.07650 0.01550 
0.19600 0.10650 -0.00450 
0.03150 0.05600 -0.14550 
0.03050 0.07800 -0.05950 
0.12800 0.08550 -0.15150 
0.13200 0.10650 -0.08650 
0.01450 0.18100 -0.15600 
0.05350 -0.06750 -0.06900 
0.03450 0.17200 -0.01150 
0.07150 0.18250 0.13650 
0.04050 0.01800 -0.11450 
0.08650 0.05350 -0.17100 
0.08100 0.04500 -0.08100 
0.07400 0.02550 -0.26200 
0.06500 0.10550 0.01400 
0.17050 -0.09150 -0.17150 
0.02100 -0.01350 -0.03600 
0.04200 -0.01850 -0.12850 
0.00700 0.10600 -0.03600 
-0.05200 -0.10300 -0.13150 
0.07900 -0.00150 -0.14000 
0.13750 0.01850 -0.01800 
0.00550 0.11400 -0.07450 
0.13400 0.06300 -0.17000 
0.00600 -0.01700 0.05000 
0.00150 0.13050 -0.03800 
0.12700 0.00500 0.01500 
0.02900 0.05250 -0.01500 
-0.13200 0.03200 -0.06550 
-0.05600 -0.06000 -0.02850 
-0.10700 -0.00250 -0.21600 
0.06100 0.03150 -0.11550 
0.00850 -0.02550 -0.13900 
0.07800 0.15950 -0.01250 
0.08950 0.09800 -0.08050 
0.09950 -0.03050 -0.23150 
-0.05250 0.06300 -0.23550 
0.06450 0.06050 0.01450 
-0.00150 0.05100 -0.01650 
0.00700 -0.02250 -0.07300 
0.04550 0.04300 -0.05850 
-0.01550 0.06150 -0.09850 
0.06050 0.07800 -0.14850 
-0.07050 -0.12250 0.04600 
0.17100 0.07350 0.04100 
0.11850 0.01200 -0.11050 
0.14200 -0.03450 -0.19250 
0.06050 0.02650 -0.05550 
0.01100 0.12950 -0.21400 
0.03450 0.05350 0.01550 
0.01350 -0.09800 0.07350 
0.06500 -0.02950 -0.17200 
0.04850 0.03900 -0.13700 
0.16400 0.09750 0.14200 
0.08500 0.03450 -0.02250 
0.04650 0.03700 -0.07050 
0.09050 0.01450 -0.09850 
0.04500 0.12350 -0.14800 
0.03150 -0.02800 -0.12150 
0.21850 0.16050 -0.02700 
0.07150 0.07900 -0.03950 
0.02500 0.10850 -0.14050 
0.11100 0.08550 -0.16200 
-0.00250 0.00200 -0.07600 
0.05350 0.07300 -0.00150 
-0.09050 0.07150 -0.02450 
0.01500 -0.04750 -0.15800 
0.01150 -0.02550 -0.10800 
0.08700 0.08650 -0.11750 
0.01900 0.00450 -0.04900 
0.13100 0.03600 -0.01150 
0.01050 -0.00950 0.06350 
0.00150 0.07950 -0.12800 
-0.07750 -0.07650 -0.27500 
0.12800 0.07600 -0.13800 
0.03200 0.03900 0.01350 
-0.01300 -0.03850 -0.09150 
0.12000 0.03350 -0.21050 
0.05500 0.08500 0.02750 
0.09800 0.20800 0.12750 
0.13000 0.09750 -0.03500 
0.13100 0.06600 0.11200 
-0.04500 0.01700 -0.08800 
0.09050 0.07400 -0.04100 
0.09400 0.01300 -0.05100 
0.03600 0.10750 0.02650 
0.02700 -0.08300 -0.03400 
-0.01900 0.04300 -0.14350 
0.01400 0.09000 -0.00950 
0.12650 0.05100 -0.27050 
0.00700 0.16450 -0.17550 
0.02250 0.04250 -0.02850 
0.06950 0.02700 -0.12600 
-0.14650 0.05000 -0.03450 
-0.13800 0.00250 -0.05250 
-0.06800 -0.03700 -0.06200 
0.08600 0.00600 0.04100 
0.06100 0.01800 -0.10100 
0.11700 0.02450 -0.11150 
-0.08150 0.11400 -0.14250 
-0.00450 0.08200 -0.16750 
-0.04550 -0.07100 -0.10400 
-0.04050 -0.03800 -0.01600 
-0.10050 0.08000 0.00400 
0.14300 0.12150 -0.13500 
0.06400 0.03000 -0.16400 
0.05850 0.13550 0.04600 
-0.12750 0.12500 -0.07150 
-0.05600 -0.00700 -0.07700 
0.12150 0.03000 0.02650 
-0.09750 -0.04800 -0.03050 
-0.03800 0.05700 -0.02900 
0.02900 0.02000 -0.14900 
0.02950 0.01100 -0.04800 
0.09600 0.08900 -0.08750 
-0.10400 0.00850 -0.00350 
0.06300 0.04750 -0.17600 
0.14350 0.02750 -0.07500 
0.01100 0.05600 -0.07800 
0.14400 0.10700 -0.08000 
-0.09950 0.03550 -0.05850 
0.10050 -0.00200 0.12050 
0.12850 0.07300 -0.14150 
0.08850 0.11650 -0.05100 
-0.03350 0.03400 -0.12650 
0.05550 0.09150 0.07050 
0.03150 0.03500 -0.17050 
0.07200 -0.01650 -0.08100 
0.01950 0.05000 -0.18650 
0.03500 0.10750 -0.00850 
-0.08650 0.05000 0.05150 
0.00700 0.05200 -0.03800 
0.00450 0.07400 -0.11600 
-0.17350 0.09200 0.04950 
-0.06400 0.07850 -0.07150 
0.03900 0.09100 0.01400 
0.03350 0.07750 -0.08450 
-0.07600 0.02300 -0.24100 
-0.13300 -0.10950 0.09450 
-0.09300 0.00350 -0.08500 
-0.02450 0.07250 -0.10950 
0.05050 -0.00100 -0.19200 
0.00300 0.14550 0.03900 
-0.01300 0.05800 0.05250 
0.01600 -0.04350 0.04200 
0.10600 -0.00000 -0.04600 
0.03900 -0.04300 -0.05050 
0.02700 0.07250 -0.04900 
0.07900 -0.05000 -0.15050 
0.02250 0.11700 -0.03650 
0.10700 0.08200 -0.04700 
0.09300 0.08000 -0.16250 
0.07600 0.04900 -0.02100 
0.08050 0.12800 0.03050 
-0.01600 0.05750 -0.00800 
0.08000 0.06950 -0.11200 
0.00950 0.07600 -0.14000 
0.06350 -0.06850 -0.11100 
-0.02800 0.05850 0.04250 
0.15800 0.01900 -0.08550 
-0.16850 -0.02200 0.09500 
0.05150 0.09350 0.00450 
0.01800 -0.05700 0.10750 
0.07150 -0.00900 -0.08700 
0.06750 0.19400 -0.02550 
0.03250 0.02550 -0.05450 
-0.01350 0.04900 -0.05700 
0.05350 0.04800 -0.13150 
0.08750 0.07350 0.03650 
0.05350 -0.04150 0.00750 
0.11250 0.05100 -0.02300 
0.01300 0.06000 -0.10250 
0.07600 0.10000 -0.09850 
0.05800 0.03550 0.00050 
-0.01000 0.16250 -0.12300 
0.12650 -0.03050 -0.05250 
0.02500 0.05450 -0.12050 
0.07600 0.03450 -0.17850 
-0.11600 0.06000 -0.11850 
-0.04050 -0.01850 0.06900 
-0.05000 -0.05550 -0.01850 
-0.07350 -0.00950 -0.08750 
0.07600 0.05650 -0.04600 
0.08150 -0.05800 -0.08000 
0.04100 0.01850 0.01250 
0.03750 -0.01350 -0.09950 
0.05250 0.00250 -0.09400 
-0.06400 -0.04600 -0.08550 
0.07400 0.07750 -0.14400 
0.05400 0.10400 -0.20050 
0.05350 -0.01100 -0.15100 
0.10650 -0.09750 -0.19950 
0.09800 0.06500 -0.19150 
0.06000 -0.06250 -0.06150 
0.06200 -0.01950 0.11750 
0.10150 0.06400 0.06950 
0.10750 0.04300 -0.04000 
0.02500 0.12400 -0.05650 
-0.08500 -0.11600 0.15050 
0.06550 0.15000 -0.11750 
0.00550 0.00850 -0.12800 
0.06600 0.04700 0.13550 
0.05200 0.03800 0.02200 
0.04750 -0.03250 0.09800 
0.10500 -0.03300 -0.05800 
-0.12150 -0.00400 -0.04000 
-0.20950 -0.09100 0.03800 
-0.00050 0.05900 -0.11650 
0.03550 -0.05750 -0.18950 
0.17750 0.13450 0.02050 
0.06600 0.13900 0.07950 
0.05550 0.10650 -0.11600 
-0.03050 -0.03350 -0.08350 
0.04800 -0.02750 -0.07450 
0.03000 0.09950 -0.06850 
-0.01950 0.02050 -0.11550 
0.12650 0.05600 -0.23650 
0.11300 0.12650 -0.15250 
0.05450 0.00400 -0.05000 
0.02050 -0.00100 0.00400 
0.03900 -0.04450 0.01300 
0.12900 -0.00600 -0.11350 
0.04550 0.06850 -0.02400 
-0.02150 0.10900 -0.08650 
0.04400 -0.01150 0.09700 
-0.01400 -0.02850 0.08550 
0.08350 -0.02450 -0.23200 
-0.07100 0.07500 -0.07400 
-0.01250 -0.04300 -0.02450 
-0.03150 -0.04750 -0.06050 
0.08900 0.19150 -0.03300 
0.02950 0.02450 -0.00450 
0.03000 0.07700 -0.19500 
0.14600 0.12050 -0.12150 
0.04200 0.03950 -0.16750 
0.06550 0.17650 -0.05800 
0.01650 0.00050 -0.08350 
-0.00300 0.01400 -0.14050 
0.01100 0.05150 -0.03950 
-0.03350 0.07750 -0.02500 
-0.06100 0.02050 -0.12450 
0.01200 0.02650 -0.13250 
0.02000 -0.03950 -0.20550 
0.04950 -0.03100 -0.05750 
0.04150 0.04400 -0.03750 
-0.00650 0.05550 -0.12250 
-0.01600 -0.04150 -0.04600 
0.18950 0.00950 -0.04500 
-0.08550 0.10000 -0.16950 
0.06700 0.05900 0.04000 
0.15500 0.04050 0.01500 
0.12050 -0.02800 -0.17150 
0.06400 0.01950 -0.18950 
-0.07350 -0.02950 -0.04600 
0.08950 0.05000 -0.01200 
0.12300 0.11300 0.03850 
0.15150 -0.03200 -0.09350 
-0.01700 0.00150 -0.04300 
-0.04600 0.04350 -0.09550 
0.04750 -0.11250 -0.00150 
0.08150 0.13800 -0.07350 
-0.02150 -0.03900 -0.08800 
-0.01600 -0.01500 -0.05300 
0.11000 0.04500 0.02450 
0.14400 0.11650 -0.06450 
0.06700 0.07250 0.00600 
0.12650 0.05050 0.13300 
0.01000 0.12850 -0.00700 
0.03250 0.05750 -0.12150 
0.07350 0.10150 0.01800 
0.11700 -0.04350 -0.04550 
0.02000 0.02550 -0.07400 
-0.00700 0.06150 0.07050 
-0.03450 0.03400 -0.11500 
0.06450 0.00950 -0.05500 
0.04150 -0.02800 0.20250 
0.11200 0.10700 -0.09300 
0.01850 -0.10450 -0.18300 
0.05150 0.04300 0.09100 
0.05850 0.00450 -0.23000 
-0.04650 0.09900 0.01300 
0.19800 0.00250 -0.01900 
0.03650 0.07200 0.11350 
0.03600 0.03600 -0.08750 
-0.03850 -0.05150 -0.03150 
-0.11050 -0.05950 0.01550 
-0.04850 0.00050 -0.08000 
0.04650 0.01000 -0.02850 
0.24850 0.02700 -0.00900 
0.02700 -0.05150 -0.13150 
0.01500 0.04000 -0.15450 
0.13000 0.04900 -0.06400 
0.07550 -0.04350 0.02850 
-0.13150 0.11150 -0.14900 
0.02700 0.04950 0.11100 
0.12500 -0.04750 -0.02850 
0.13250 -0.02600 -0.12500 
0.07150 0.06550 -0.17200 
0.14400 0.11750 -0.15500 
0.20000 0.08550 -0.15950 
0.02450 0.06850 -0.19500 
-0.09150 -0.00450 -0.31250 
0.04800 0.00600 -0.07450 
0.10950 0.11200 -0.11550 
-0.02550 -0.01450 0.04550 
0.05300 0.10450 -0.14100 
-0.06650 -0.01150 -0.18500 
-0.00550 0.11700 -0.18400 
0.06350 0.10800 -0.15500 
0.00150 0.01350 -0.11450 
0.07500 -0.02400 -0.01700 
-0.07450 -0.01200 -0.09600 
-0.06400 -0.09550 -0.11000 
0.06550 0.10550 -0.10900 
0.10150 0.00200 -0.13550 
0.15800 0.05850 -0.08050 
-0.05550 -0.01300 -0.11850 
0.08050 -0.00850 0.06750 
0.14150 -0.06500 0.04300 
0.12000 0.12300 0.03550 
0.06300 0.04600 -0.17150 
0.01200 -0.03450 -0.09700 
0.09550 0.02600 -0.14500 
-0.11500 0.00850 -0.09350 
0.08650 0.08450 -0.05150 
0.13000 0.11400 -0.04500 
0.09950 0.04050 -0.11050 
-0.02400 0.05150 -0.13850 
0.03250 0.03650 -0.15850 
-0.04950 0.05000 -0.21500 
-0.08900 -0.01000 -0.07950 
-0.00200 0.03550 -0.09550 
0.24950 -0.02100 -0.02350 
0.14700 -0.00200 -0.03000 
0.04650 0.05100 -0.12300 
0.10200 -0.00000 -0.09850 
-0.04750 -0.11450 0.02100 
-0.00700 0.05500 -0.07900 
0.10500 0.03950 -0.10750 
0.13900 0.07600 -0.08200 
0.12350 0.04000 -0.13050 
-0.03600 0.03650 0.03150 
-0.07750 0.04050 -0.05150 
0.00900 -0.02750 0.01100 
-0.05850 0.02450 0.00250 
0.07000 -0.00500 -0.02600 
-0.06050 0.06450 0.00500 
-0.04100 -0.11000 0.09100 
0.10350 -0.06400 0.03100 
0.06750 0.10950 -0.06600 
-0.00000 0.05250 -0.04800 
0.11200 -0.01400 -0.23000 
0.04150 0.04900 -0.02850 
0.11500 -0.02800 -0.28250 
-0.02050 0.02350 -0.07350 
0.09450 0.07050 0.01350 
0.03250 0.13550 -0.11650 
-0.01700 -0.03350 -0.15000 
0.06050 0.02450 -0.00750 
0.08000 0.09900 -0.00250 
-0.02150 0.03200 -0.02400 
0.10700 0.17350 -0.25350 
0.08700 0.10100 -0.01650 
0.04900 0.13700 -0.06600 
-0.16300 0.03400 0.07150 
-0.05650 -0.00550 0.08300 
-0.09000 -0.03200 -0.02950 
0.02950 0.02450 0.06550 
-0.00950 -0.01800 -0.09850 
0.16550 0.13200 -0.17550 
-0.11350 0.10200 0.03200 
0.14700 0.00050 -0.01100 
-0.13700 0.03300 -0.18850 
0.14400 0.16000 -0.10400 
0.19000 -0.00350 0.26250 
0.01150 0.05500 -0.08700 
0.12850 0.14700 -0.11350 
0.18900 0.12600 -0.16350 
0.06750 0.08950 0.01100 
-0.05450 0.05850 -0.14000 
0.02350 0.01300 -0.07600 
-0.06400 0.14750 -0.02450 
0.04100 0.13700 0.07100 
-0.15550 0.05000 -0.01400 
0.21550 0.24000 -0.08950 
0.05850 0.01150 -0.00350 
0.05750 0.04600 -0.09000 
0.09950 0.00650 -0.05150 
-0.05800 0.06200 -0.11850 
0.01400 -0.00550 -0.10600 
-0.10450 -0.00050 0.04550 
0.15300 0.10200 -0.19050 
-0.04800 0.11250 0.04100 
-0.03550 0.00400 -0.15950 
0.15500 -0.06200 0.01350 
0.10550 0.08050 -0.29850 
0.05550 -0.04500 0.02750 
0.04450 0.12800 0.05000 
0.04350 0.02600 -0.05900 
-0.22400 -0.15600 0.02500 
0.12250 -0.07250 -0.23950 
0.07800 0.07700 0.19900 
-0.04500 -0.07650 0.08500 
-0.09350 -0.02350 -0.14150 
0.01050 0.01300 -0.11550 
-0.04950 -0.03500 0.01350 
-0.03250 0.04550 -0.10350 
0.14150 0.04650 -0.00350 
0.21150 -0.00200 0.03400 
0.11750 0.08700 -0.06450 
-0.05700 0.08250 -0.08200 
-0.02750 -0.06900 -0.13600 