# vtk DataFile Version 2.0 
Xm, Ym, Zm, Uvecs, timestep 10048 
ASCII 
 
DATASET POLYDATA POINTS 499 float 
 -0.353   1.561 -72.088 
 -4.555  -7.930 -73.011 
  8.787   4.592 -69.332 
  0.366   4.453 -69.225 
 -0.710   3.700 -69.519 
 -3.077   6.560 -70.860 
 -1.732   5.134 -73.694 
 -2.414  -3.615 -69.903 
  0.745  -3.404 -70.228 
  1.488  -3.438 -70.844 
-12.204   8.246 -75.883 
  8.337   3.208 -69.031 
 -1.851  -0.714 -71.478 
 -0.725  -0.028 -72.090 
 -2.954  -2.027 -73.862 
  3.921   7.561 -74.346 
 12.122  -1.325 -69.956 
  0.639   5.401 -71.266 
-11.360   5.568 -72.236 
 -0.532  -1.563 -70.664 
 12.381  -3.451 -71.660 
  8.380   8.941 -75.078 
 -8.185  11.725 -72.506 
  6.973  -1.365 -71.435 
 -6.099  -6.587 -70.341 
 -5.280  -7.742 -70.052 
  7.178   7.970 -72.850 
  7.216  12.027 -70.307 
  8.066   4.097 -68.671 
  1.316   4.236 -69.820 
  7.613  11.054 -71.740 
  1.176  12.313 -71.091 
 -2.944   8.567 -66.576 
 13.089   3.216 -72.748 
  8.626   6.431 -72.080 
  5.142   4.677 -68.121 
  5.530  -7.106 -76.786 
 -4.751   2.454 -65.106 
  6.123   1.898 -65.605 
 -3.268   4.676 -68.953 
  7.401  -7.530 -69.739 
  2.705   8.409 -64.096 
  3.003  11.454 -68.410 
 -4.983  -2.660 -67.782 
  9.359  11.867 -68.236 
  2.158  -4.792 -65.966 
  7.097   5.143 -67.027 
 -0.181   2.149 -73.391 
  6.393  -2.063 -65.911 
-11.177  -4.885 -68.873 
 -8.938  -0.045 -71.114 
 -7.507  -5.005 -66.489 
 -5.610  -2.356 -68.710 
 -4.327  12.804 -66.941 
 -9.087   2.471 -66.105 
  9.410   8.210 -71.008 
 -8.161  -9.455 -67.219 
  5.246  -3.015 -71.130 
-12.053  -0.018 -68.888 
 -8.354  -2.510 -69.167 
 -2.784   0.431 -71.683 
 -0.378   8.143 -72.617 
 -3.969  -1.829 -74.965 
  1.432 -12.305 -63.951 
 -6.480  11.012 -69.862 
 -8.461  -7.580 -66.022 
 -4.180   2.530 -68.351 
  3.312  10.075 -68.148 
 11.255  10.784 -71.228 
 -2.399  10.795 -69.874 
-12.364   4.839 -68.944 
 15.323   3.692 -71.090 
 -9.416   6.059 -70.617 
  1.511   4.332 -72.177 
  5.727  -4.390 -66.387 
 -0.876   9.122 -68.127 
 -8.441  -5.873 -67.810 
 -1.473  12.333 -72.611 
  2.527  -1.194 -64.075 
  4.441  -3.812 -66.692 
 -5.548   0.682 -67.688 
  3.832  10.997 -67.737 
 -6.303   9.107 -65.555 
 12.769   9.064 -71.863 
-15.315  12.031 -73.016 
 -2.135   7.232 -68.815 
 -9.602   3.075 -67.001 
-15.570  10.831 -72.802 
 -9.364  12.430 -69.679 
  4.546 -10.078 -67.604 
 10.158  -7.319 -71.589 
  1.244   1.292 -69.728 
 14.658  -3.777 -72.689 
 12.389  -3.369 -69.254 
 11.050  -5.271 -67.021 
 15.665   4.640 -71.768 
 -3.843   5.097 -59.970 
 12.512  -4.534 -69.311 
 16.559  -0.992 -68.429 
 -8.681  -9.881 -67.067 
 11.986  -4.219 -70.406 
 -3.337  -4.335 -66.667 
 10.893   8.852 -70.910 
 -8.651  -2.992 -66.304 
-11.586   2.926 -63.304 
 -7.636   2.134 -69.286 
 -7.400  -5.534 -64.054 
  0.920   1.791 -62.102 
 -2.990   2.463 -66.457 
 -1.261   0.143 -65.123 
 14.454   1.775 -66.099 
 -1.748  -5.018 -66.981 
 -7.514   0.838 -68.653 
  1.121  -5.026 -64.630 
 -2.293   3.579 -61.374 
 11.148  -3.939 -70.114 
-12.695   1.687 -70.795 
-10.430   9.983 -64.130 
  6.367   6.973 -70.547 
 -5.165  -7.021 -65.311 
-10.457   6.456 -66.447 
  2.505  12.061 -63.880 
  9.338   9.160 -64.067 
 -6.540   0.954 -61.231 
  6.759   2.925 -72.968 
 12.790  -1.331 -69.602 
 -6.517   0.734 -68.396 
  9.495   4.927 -66.985 
 11.109   6.612 -63.817 
 11.664  -0.083 -70.242 
  0.638  10.666 -69.194 
 -6.083   8.986 -63.717 
  5.073   8.190 -70.465 
 -5.094  -2.011 -68.671 
 -5.946  -3.308 -66.857 
  2.601  -9.975 -71.074 
  3.772  -5.677 -63.917 
 11.067   7.382 -69.109 
  8.548  10.953 -69.689 
 10.291  -8.959 -71.017 
  2.434 -12.447 -64.513 
 12.817   8.744 -64.769 
 -9.930  -3.022 -68.328 
-13.032  10.654 -65.293 
 -7.203  -3.538 -66.608 
 -0.403   2.275 -69.569 
  5.691   8.852 -70.761 
 -2.869   2.635 -72.238 
 11.398  -1.569 -68.740 
  6.994  -9.028 -64.073 
 15.826 -11.088 -71.315 
  1.784  -6.364 -72.265 
-10.815   7.316 -64.506 
-12.586  -7.386 -67.811 
 -9.279  -4.304 -70.601 
 -1.129   1.298 -72.439 
 13.854  -5.846 -71.341 
 -7.540   2.603 -63.994 
  9.924  -3.401 -74.762 
 -5.727 -10.499 -65.928 
 -8.355   8.983 -63.673 
-15.537  -9.841 -74.707 
 -1.738  11.081 -62.448 
  9.195   0.573 -72.372 
 13.620  -4.510 -65.980 
 -7.555  -6.353 -69.716 
  2.197   6.454 -64.574 
  9.043   7.614 -67.441 
-13.717   5.364 -73.991 
 -2.872  12.284 -71.970 
-12.146   0.929 -73.201 
-13.204  -0.906 -74.343 
 -5.743   2.878 -63.484 
  5.780  -3.061 -71.738 
 -8.634  11.099 -63.032 
 16.889   8.994 -67.123 
 -7.140  -1.207 -72.773 
 -9.735  -7.844 -68.560 
 16.336   4.153 -65.018 
 14.795   2.321 -68.931 
 -8.018   2.526 -64.754 
-13.410   7.358 -71.168 
 -6.081   4.665 -69.964 
  3.394 -11.439 -66.612 
  6.661   2.194 -72.493 
  9.232  -6.645 -65.276 
 -8.629 -11.772 -73.056 
 11.304   0.544 -66.016 
  7.386  -4.173 -71.325 
  0.493   1.854 -67.564 
 -2.461   7.965 -72.433 
-10.538  -6.153 -68.262 
-11.860   9.773 -65.665 
 -7.271  -8.252 -66.545 
-14.607  -7.923 -68.811 
  5.741   9.002 -72.990 
 11.042  11.420 -66.894 
-10.432  -2.308 -64.135 
  9.323  10.604 -67.907 
 -4.886   3.028 -72.306 
 14.205   9.729 -71.211 
  3.284   9.684 -70.453 
 -2.744  10.895 -71.561 
 -4.175   1.551 -65.239 
 -3.415  -4.704 -72.165 
 -1.271 -12.612 -68.702 
 -6.354  -8.563 -66.172 
 -1.145   7.029 -71.611 
  1.363   5.777 -72.064 
-12.860  -3.227 -72.180 
-10.553  -2.806 -74.144 
  2.764  -0.801 -76.114 
 11.520   5.187 -62.558 
 -4.017  -4.175 -72.304 
  2.677 -11.012 -70.275 
  0.475  -6.616 -76.992 
  6.034   9.965 -74.233 
 -7.068   5.135 -76.103 
  2.548  12.368 -60.547 
  7.348   3.749 -71.358 
 14.088   2.438 -70.806 
-11.768   8.766 -75.233 
  5.790   1.656 -66.298 
  6.692   0.685 -63.121 
  9.369  -1.960 -69.786 
 -5.184 -11.261 -60.332 
  6.628 -13.076 -69.335 
-11.791  -4.231 -68.690 
-10.866   8.018 -64.394 
  9.020  -4.162 -70.224 
-14.904  -5.489 -75.293 
 14.881  -6.719 -71.761 
 -8.880   6.170 -61.945 
  7.939   6.612 -63.643 
  2.843  -4.926 -70.583 
-10.437   4.155 -64.532 
 -2.389 -10.058 -72.006 
 13.370   5.224 -63.769 
  9.524   4.099 -63.557 
  7.714   3.986 -74.637 
-14.099  -1.132 -70.651 
 -0.471  12.506 -62.578 
  0.222  -8.488 -67.936 
 14.740  10.881 -68.736 
 -0.542   7.071 -76.261 
 -2.494   3.155 -64.107 
 13.434 -11.885 -68.338 
 -3.314  -3.777 -64.871 
 13.740  -7.364 -66.060 
  9.361 -12.086 -68.710 
 12.654  10.624 -68.199 
  3.519  -3.361 -67.262 
 12.479   5.359 -75.114 
 10.753   0.589 -65.990 
 17.347  -6.850 -72.274 
 11.604   3.535 -61.969 
  4.301  -9.223 -68.255 
-13.616   5.643 -70.890 
 10.110  -1.303 -63.011 
  7.939   3.826 -62.925 
  2.572   3.829 -60.279 
 14.640   2.466 -73.651 
  9.104  -4.553 -65.793 
 13.471   3.237 -64.352 
 15.381   8.338 -68.219 
  1.883  -7.980 -66.450 
  1.610  -7.224 -74.106 
-11.692   1.727 -67.272 
  2.286   5.185 -74.853 
 14.610  -3.856 -69.499 
 13.559  10.259 -69.585 
-13.765  -4.196 -69.807 
 -8.215   7.393 -65.168 
 11.029  11.963 -68.815 
 11.512   7.050 -64.655 
  3.314  -8.177 -63.401 
  0.819 -10.071 -71.009 
 14.264  -5.501 -70.592 
  4.395   3.546 -70.768 
 -8.476  -5.719 -65.016 
  8.524  -4.469 -73.316 
-10.360  11.339 -75.219 
  2.385  -1.678 -64.243 
  7.167   5.749 -65.120 
 -4.213  -9.710 -76.613 
 10.637  -3.482 -70.093 
 -2.479 -10.714 -64.601 
 10.265   6.237 -73.302 
 12.765  12.006 -71.458 
  5.615 -12.337 -72.799 
-15.115  -9.777 -72.163 
 13.242  10.717 -67.590 
 12.083   0.852 -73.810 
 11.120   3.239 -62.774 
 -1.355   4.261 -73.702 
 14.052   0.301 -63.357 
  9.896  -9.294 -72.779 
 12.791  -9.698 -68.751 
-14.800   5.053 -68.567 
 -3.118  -8.819 -70.038 
 14.620  -3.442 -66.266 
-13.057  11.994 -68.751 
 -2.315   0.966 -72.928 
-15.131  -9.965 -76.393 
 -5.269   7.711 -66.314 
 10.323  -7.899 -66.323 
  8.016  -3.965 -75.212 
 10.446  12.583 -63.715 
 15.466 -11.536 -68.865 
 -5.490 -10.105 -77.561 
  3.652   3.662 -69.666 
 -7.470   7.534 -70.866 
  5.295   2.681 -68.941 
 -7.864   5.163 -69.392 
 -3.494   6.949 -69.946 
  1.507  -3.696 -75.361 
-10.288   1.982 -71.653 
  6.729   9.925 -69.020 
-12.911   7.844 -75.975 
 -5.761   9.439 -73.353 
  1.013  -8.870 -71.318 
  0.927  -3.479 -65.844 
-11.998 -11.217 -69.381 
 -0.167  -3.268 -69.436 
-11.099   2.067 -73.912 
 17.903   1.663 -68.560 
  7.362   9.541 -71.159 
 -6.252   0.450 -67.387 
 -9.791  -2.547 -68.327 
 -7.550  -1.632 -62.163 
 -2.169  -9.979 -61.115 
  1.063   1.387 -66.203 
 -1.368  -0.608 -62.832 
 -8.784  -2.044 -66.947 
 -4.211   0.819 -72.930 
 -1.979  11.673 -72.869 
 -3.385  -4.128 -69.953 
 13.286 -12.464 -66.260 
 -4.317   8.447 -61.139 
  1.586   0.642 -65.084 
  7.368  -8.854 -66.722 
 13.532  -0.079 -63.679 
  7.447   9.884 -65.730 
 -5.669   6.646 -63.077 
 12.672   2.457 -72.093 
  2.643  -4.819 -76.781 
 -8.824 -11.279 -69.047 
 -1.654  -0.935 -57.565 
 12.175  -7.325 -65.734 
 -6.469   7.551 -60.329 
 -7.932  -6.947 -74.340 
 16.642   6.453 -70.419 
  2.282  10.599 -63.890 
  7.582 -12.636 -65.939 
 -4.982  -8.123 -65.511 
 13.019  -8.498 -65.011 
 11.227   7.158 -70.769 
 -1.154  -7.077 -72.171 
  4.126  -4.159 -73.743 
 -5.617  -1.968 -62.627 
-11.967 -11.149 -66.271 
 16.461   7.418 -65.624 
  1.680  -9.296 -73.076 
 -8.090  -5.473 -62.952 
  6.353   4.216 -61.198 
  5.398   1.000 -73.963 
 13.534  11.264 -66.721 
-10.027   4.184 -61.664 
 -1.688   5.098 -63.968 
 -0.422  -5.752 -68.182 
 -7.235  10.778 -67.088 
  7.734 -11.679 -66.845 
-11.146   8.310 -62.356 
 -5.798  -4.825 -74.862 
 -3.634   5.857 -60.579 
-13.683   7.076 -74.949 
 -5.053  11.759 -69.203 
 -6.285  10.220 -62.620 
  3.958   0.713 -58.252 
  3.649  10.972 -63.039 
 -5.007   4.351 -65.280 
-13.858 -11.772 -67.959 
 -9.427  -1.747 -66.807 
  4.487   9.713 -73.791 
 14.547 -12.892 -67.332 
  9.967 -12.202 -67.226 
-12.250  -1.087 -62.005 
 -6.402  -6.376 -67.909 
-10.929  11.153 -64.648 
  8.986  -7.328 -61.923 
  4.700   8.800 -60.838 
 -4.471   4.861 -62.356 
-15.384  -6.973 -68.626 
 16.083  -7.553 -70.713 
 14.174  -1.879 -75.476 
  4.452  -1.193 -71.744 
 14.126  -4.981 -75.342 
 -0.163  -4.801 -66.957 
  2.206  -7.575 -61.419 
  7.798  -7.455 -62.922 
 -6.794  10.177 -66.904 
 -9.698  10.991 -57.129 
 -6.430   0.416 -60.968 
  9.643  10.331 -69.667 
-10.644  11.324 -62.546 
 -9.394  -4.140 -62.930 
 -2.697 -11.689 -66.603 
  7.150  -8.298 -61.901 
  3.325  12.256 -72.969 
-11.537  -7.575 -61.984 
  8.625  -4.277 -60.431 
 -8.094  -0.748 -63.182 
  5.914   3.647 -58.790 
-15.046  -8.428 -68.758 
 11.107   4.922 -64.308 
 -7.141   8.669 -62.784 
  8.537  -2.328 -73.185 
 13.610   0.280 -68.245 
  5.277  10.393 -61.008 
 15.893  11.675 -72.255 
  7.428   7.318 -72.574 
  9.515  -3.446 -73.651 
  3.034 -10.079 -64.116 
-10.040  -1.434 -68.006 
 -6.085   1.921 -73.003 
-14.360   3.728 -69.597 
 17.219  -9.569 -74.655 
-13.071   1.427 -76.492 
 13.281  -6.335 -72.501 
-15.238  -2.065 -76.663 
 14.927   8.835 -73.722 
-10.687   5.395 -66.048 
-14.945  -9.288 -69.841 
 17.707  -3.923 -70.460 
-11.521  -9.971 -72.744 
  2.553  -8.988 -70.362 
 -7.133  -7.372 -65.282 
 17.848  10.934 -67.336 
 16.423  -1.889 -74.615 
 -6.808  -7.272 -77.171 
 -8.127   9.375 -64.341 
 -7.486   6.973 -73.027 
  3.243  10.453 -76.446 
  5.830   0.748 -62.894 
  9.442   2.821 -73.035 
-10.406  -3.721 -66.681 
  7.888  -7.987 -73.815 
  8.060  11.082 -68.162 
 17.349   7.493 -68.939 
  4.586  11.019 -70.376 
 -0.569  -7.248 -61.314 
-13.950  -7.240 -71.661 
 15.425  13.245 -65.400 
 -0.970   8.836 -62.325 
 11.933  -4.192 -63.450 
 -8.021   6.633 -66.581 
 13.231  -6.555 -73.968 
 13.194   4.966 -74.131 
  4.111   1.664 -75.458 
 -1.251  -3.313 -70.638 
 10.986   1.582 -63.971 
 -6.002   4.626 -64.561 
  9.255   8.607 -69.213 
 12.646   7.399 -63.058 
  8.787 -10.973 -72.570 
 -6.035   4.196 -74.621 
 -4.568   0.454 -70.642 
  7.457   0.796 -70.297 
  7.151  -5.398 -69.049 
  5.319   0.295 -62.257 
  2.650 -12.452 -65.245 
 -3.814   1.789 -70.938 
 -5.425  -0.309 -68.092 
 -5.876 -10.000 -68.858 
 -7.363   9.660 -77.023 
 -0.866  -6.831 -62.017 
 -5.360  -1.916 -72.912 
 -2.245   9.563 -74.422 
  5.389  -7.962 -63.130 
 -4.094   9.548 -74.786 
  8.932  -4.492 -62.829 
  1.028   5.027 -73.748 
  7.835 -11.541 -70.078 
  6.292   5.579 -62.693 
 -6.130   9.957 -62.311 
 13.871  -2.518 -68.872 
 16.078  -6.703 -71.455 
-12.927  -4.258 -74.548 
 -7.401  -2.894 -74.511 
 15.074   9.983 -64.082 
 10.597   6.234 -66.790 
  1.842   5.526 -68.258 
 -5.667   5.666 -65.825 
 15.455  -7.700 -74.918 
 -7.524   7.701 -71.898 
 15.967   9.043 -69.695 
 15.363  -7.291 -72.208 
 -7.797  13.108 -71.254 
 16.230  -8.805 -68.761 

 VERTICES 499 998 
1 0 
1 1 
1 2 
1 3 
1 4 
1 5 
1 6 
1 7 
1 8 
1 9 
1 10 
1 11 
1 12 
1 13 
1 14 
1 15 
1 16 
1 17 
1 18 
1 19 
1 20 
1 21 
1 22 
1 23 
1 24 
1 25 
1 26 
1 27 
1 28 
1 29 
1 30 
1 31 
1 32 
1 33 
1 34 
1 35 
1 36 
1 37 
1 38 
1 39 
1 40 
1 41 
1 42 
1 43 
1 44 
1 45 
1 46 
1 47 
1 48 
1 49 
1 50 
1 51 
1 52 
1 53 
1 54 
1 55 
1 56 
1 57 
1 58 
1 59 
1 60 
1 61 
1 62 
1 63 
1 64 
1 65 
1 66 
1 67 
1 68 
1 69 
1 70 
1 71 
1 72 
1 73 
1 74 
1 75 
1 76 
1 77 
1 78 
1 79 
1 80 
1 81 
1 82 
1 83 
1 84 
1 85 
1 86 
1 87 
1 88 
1 89 
1 90 
1 91 
1 92 
1 93 
1 94 
1 95 
1 96 
1 97 
1 98 
1 99 
1 100 
1 101 
1 102 
1 103 
1 104 
1 105 
1 106 
1 107 
1 108 
1 109 
1 110 
1 111 
1 112 
1 113 
1 114 
1 115 
1 116 
1 117 
1 118 
1 119 
1 120 
1 121 
1 122 
1 123 
1 124 
1 125 
1 126 
1 127 
1 128 
1 129 
1 130 
1 131 
1 132 
1 133 
1 134 
1 135 
1 136 
1 137 
1 138 
1 139 
1 140 
1 141 
1 142 
1 143 
1 144 
1 145 
1 146 
1 147 
1 148 
1 149 
1 150 
1 151 
1 152 
1 153 
1 154 
1 155 
1 156 
1 157 
1 158 
1 159 
1 160 
1 161 
1 162 
1 163 
1 164 
1 165 
1 166 
1 167 
1 168 
1 169 
1 170 
1 171 
1 172 
1 173 
1 174 
1 175 
1 176 
1 177 
1 178 
1 179 
1 180 
1 181 
1 182 
1 183 
1 184 
1 185 
1 186 
1 187 
1 188 
1 189 
1 190 
1 191 
1 192 
1 193 
1 194 
1 195 
1 196 
1 197 
1 198 
1 199 
1 200 
1 201 
1 202 
1 203 
1 204 
1 205 
1 206 
1 207 
1 208 
1 209 
1 210 
1 211 
1 212 
1 213 
1 214 
1 215 
1 216 
1 217 
1 218 
1 219 
1 220 
1 221 
1 222 
1 223 
1 224 
1 225 
1 226 
1 227 
1 228 
1 229 
1 230 
1 231 
1 232 
1 233 
1 234 
1 235 
1 236 
1 237 
1 238 
1 239 
1 240 
1 241 
1 242 
1 243 
1 244 
1 245 
1 246 
1 247 
1 248 
1 249 
1 250 
1 251 
1 252 
1 253 
1 254 
1 255 
1 256 
1 257 
1 258 
1 259 
1 260 
1 261 
1 262 
1 263 
1 264 
1 265 
1 266 
1 267 
1 268 
1 269 
1 270 
1 271 
1 272 
1 273 
1 274 
1 275 
1 276 
1 277 
1 278 
1 279 
1 280 
1 281 
1 282 
1 283 
1 284 
1 285 
1 286 
1 287 
1 288 
1 289 
1 290 
1 291 
1 292 
1 293 
1 294 
1 295 
1 296 
1 297 
1 298 
1 299 
1 300 
1 301 
1 302 
1 303 
1 304 
1 305 
1 306 
1 307 
1 308 
1 309 
1 310 
1 311 
1 312 
1 313 
1 314 
1 315 
1 316 
1 317 
1 318 
1 319 
1 320 
1 321 
1 322 
1 323 
1 324 
1 325 
1 326 
1 327 
1 328 
1 329 
1 330 
1 331 
1 332 
1 333 
1 334 
1 335 
1 336 
1 337 
1 338 
1 339 
1 340 
1 341 
1 342 
1 343 
1 344 
1 345 
1 346 
1 347 
1 348 
1 349 
1 350 
1 351 
1 352 
1 353 
1 354 
1 355 
1 356 
1 357 
1 358 
1 359 
1 360 
1 361 
1 362 
1 363 
1 364 
1 365 
1 366 
1 367 
1 368 
1 369 
1 370 
1 371 
1 372 
1 373 
1 374 
1 375 
1 376 
1 377 
1 378 
1 379 
1 380 
1 381 
1 382 
1 383 
1 384 
1 385 
1 386 
1 387 
1 388 
1 389 
1 390 
1 391 
1 392 
1 393 
1 394 
1 395 
1 396 
1 397 
1 398 
1 399 
1 400 
1 401 
1 402 
1 403 
1 404 
1 405 
1 406 
1 407 
1 408 
1 409 
1 410 
1 411 
1 412 
1 413 
1 414 
1 415 
1 416 
1 417 
1 418 
1 419 
1 420 
1 421 
1 422 
1 423 
1 424 
1 425 
1 426 
1 427 
1 428 
1 429 
1 430 
1 431 
1 432 
1 433 
1 434 
1 435 
1 436 
1 437 
1 438 
1 439 
1 440 
1 441 
1 442 
1 443 
1 444 
1 445 
1 446 
1 447 
1 448 
1 449 
1 450 
1 451 
1 452 
1 453 
1 454 
1 455 
1 456 
1 457 
1 458 
1 459 
1 460 
1 461 
1 462 
1 463 
1 464 
1 465 
1 466 
1 467 
1 468 
1 469 
1 470 
1 471 
1 472 
1 473 
1 474 
1 475 
1 476 
1 477 
1 478 
1 479 
1 480 
1 481 
1 482 
1 483 
1 484 
1 485 
1 486 
1 487 
1 488 
1 489 
1 490 
1 491 
1 492 
1 493 
1 494 
1 495 
1 496 
1 497 
1 498 
POINT_DATA 499 
SCALARS MeanU double 1 
LOOKUP_TABLE default
0.11032 
0.07567 
0.11199 
0.12513 
0.12326 
0.12394 
0.11680 
0.12399 
0.13538 
0.11939 
0.06062 
0.10188 
0.10844 
0.11055 
0.07686 
0.04311 
0.09998 
0.08197 
0.04448 
0.17025 
0.03799 
0.11903 
0.06800 
0.13055 
0.13377 
0.10855 
0.10945 
0.07127 
0.08668 
0.10281 
0.11079 
0.05811 
0.11120 
0.10520 
0.07401 
0.07333 
0.06685 
0.17135 
0.12332 
0.16496 
0.02055 
0.21013 
0.11813 
0.08672 
0.07126 
0.19863 
0.07338 
0.11307 
0.19241 
0.09975 
0.08614 
0.12950 
0.11905 
0.14874 
0.15352 
0.13331 
0.14328 
0.06175 
0.03120 
0.09745 
0.12036 
0.13014 
0.04314 
0.13323 
0.15358 
0.15928 
0.11168 
0.13756 
0.08948 
0.08615 
0.04596 
0.10902 
0.07270 
0.09933 
0.12637 
0.10442 
0.15894 
0.05545 
0.21453 
0.14024 
0.15618 
0.13589 
0.13463 
0.13082 
0.05253 
0.13294 
0.13243 
0.09352 
0.06631 
0.18945 
0.05412 
0.14205 
0.04275 
0.08947 
0.05959 
0.13941 
0.10311 
0.08039 
0.12656 
0.08693 
0.03560 
0.19499 
0.06959 
0.12399 
0.13502 
0.08690 
0.13969 
0.18137 
0.09348 
0.19104 
0.11176 
0.17454 
0.07093 
0.17857 
0.15051 
0.03579 
0.03796 
0.09150 
0.12693 
0.12941 
0.11746 
0.09553 
0.10456 
0.15111 
0.12172 
0.10553 
0.11477 
0.10941 
0.11012 
0.07872 
0.12959 
0.13261 
0.05423 
0.09599 
0.15657 
0.07565 
0.17682 
0.08702 
0.08391 
0.05514 
0.11598 
0.10650 
0.08147 
0.03300 
0.14111 
0.12169 
0.07260 
0.13641 
0.09557 
0.07431 
0.08451 
0.04301 
0.12250 
0.11046 
0.13062 
0.10992 
0.07352 
0.10334 
0.13178 
0.11521 
0.20193 
0.13261 
0.10683 
0.09147 
0.09867 
0.16691 
0.19591 
0.10455 
0.04966 
0.05982 
0.06767 
0.06570 
0.16168 
0.05259 
0.10048 
0.16624 
0.04809 
0.11188 
0.10733 
0.10529 
0.10642 
0.03805 
0.08631 
0.17692 
0.08311 
0.13541 
0.15655 
0.15829 
0.11146 
0.21533 
0.11772 
0.12848 
0.04420 
0.14336 
0.08901 
0.11916 
0.05787 
0.13384 
0.12835 
0.08782 
0.13690 
0.09305 
0.06228 
0.16695 
0.07867 
0.10321 
0.12141 
0.13229 
0.10979 
0.07830 
0.03902 
0.14752 
0.13166 
0.06162 
0.07541 
0.06344 
0.11693 
0.04522 
0.11818 
0.10226 
0.11039 
0.09975 
0.13646 
0.05808 
0.09496 
0.14635 
0.05414 
0.08744 
0.12216 
0.06982 
0.10661 
0.04353 
0.12096 
0.08626 
0.12474 
0.10478 
0.09812 
0.10798 
0.14312 
0.14065 
0.03537 
0.12836 
0.17208 
0.10394 
0.05967 
0.17775 
0.06756 
0.17276 
0.10522 
0.06604 
0.11325 
0.22458 
0.14232 
0.12962 
0.07709 
0.17105 
0.19611 
0.04604 
0.17136 
0.11041 
0.16511 
0.13371 
0.14059 
0.11553 
0.16330 
0.24424 
0.09336 
0.08250 
0.09043 
0.11105 
0.13346 
0.04714 
0.10723 
0.07936 
0.12571 
0.16668 
0.14439 
0.08329 
0.09713 
0.08060 
0.07219 
0.03061 
0.23270 
0.11112 
0.03042 
0.03905 
0.16209 
0.12462 
0.13272 
0.08223 
0.08641 
0.10722 
0.09906 
0.17563 
0.17632 
0.12259 
0.06205 
0.09722 
0.02442 
0.08765 
0.09410 
0.05493 
0.09487 
0.04470 
0.16552 
0.06029 
0.06716 
0.16371 
0.08420 
0.08557 
0.12619 
0.12544 
0.04837 
0.08090 
0.10480 
0.04272 
0.05631 
0.15893 
0.07391 
0.08805 
0.18157 
0.19111 
0.19897 
0.16945 
0.06265 
0.13111 
0.07539 
0.17404 
0.09047 
0.24816 
0.16821 
0.16979 
0.21075 
0.09225 
0.07284 
0.06026 
0.07293 
0.08049 
0.14083 
0.19165 
0.10421 
0.17384 
0.11663 
0.14678 
0.09823 
0.04551 
0.12801 
0.24118 
0.09599 
0.11818 
0.06497 
0.11756 
0.14796 
0.17765 
0.14609 
0.15708 
0.09470 
0.02667 
0.07811 
0.22301 
0.16957 
0.13144 
0.08189 
0.15740 
0.14149 
0.05132 
0.17125 
0.17417 
0.17380 
0.20710 
0.13045 
0.19312 
0.19069 
0.01985 
0.09927 
0.07090 
0.13922 
0.13757 
0.19252 
0.06432 
0.13799 
0.15840 
0.23100 
0.15652 
0.12228 
0.04469 
0.12436 
0.09464 
0.05296 
0.09588 
0.07594 
0.19776 
0.13841 
0.06644 
0.07190 
0.24014 
0.06595 
0.21198 
0.15747 
0.04351 
0.14089 
0.15503 
0.13951 
0.07128 
0.14693 
0.10293 
0.10867 
0.13408 
0.11331 
0.16040 
0.17789 
0.13688 
0.17962 
0.07332 
0.09179 
0.22107 
0.10101 
0.13781 
0.08190 
0.13507 
0.09054 
0.05380 
0.23927 
0.24044 
0.06675 
0.05452 
0.06355 
0.03140 
0.04431 
0.07774 
0.06684 
0.10435 
0.11254 
0.13628 
0.12038 
0.10337 
0.15961 
0.11747 
0.05825 
0.08650 
0.20938 
0.12006 
0.02270 
0.12790 
0.11722 
0.13695 
0.05636 
0.10686 
0.11471 
0.08916 
0.10510 
0.07884 
0.05053 
0.17576 
0.09607 
0.13921 
0.02948 
0.10722 
0.21931 
0.12809 
0.18404 
0.13481 
0.14797 
0.12729 
0.07313 
0.05616 
0.07234 
0.14420 
0.11433 
0.21041 
0.11344 
0.10455 
0.10511 
0.17596 
0.09341 
0.14599 
0.09264 
0.09260 
0.18611 
0.14970 
0.14880 
0.09101 
0.05306 
0.19883 
0.14524 
0.10223 
0.12533 
0.07640 
0.07095 
0.07673 
0.12994 
0.11962 
0.15927 
0.10864 
0.09584 
0.14510 
0.09837 
0.09884 
0.09148 

 VECTORS Umean float 
0.02150 0.07500 -0.07800 
0.06700 0.03500 0.00350 
0.00200 0.10400 -0.04150 
-0.00600 0.09300 -0.08350 
0.01250 0.10550 -0.06250 
-0.03650 0.09000 -0.07700 
-0.04500 0.04900 -0.09600 
0.00950 0.12200 0.02000 
0.02800 0.13200 -0.01100 
0.00150 0.11850 -0.01450 
-0.05050 0.00150 -0.03350 
0.01950 0.08250 -0.05650 
0.04650 0.09050 -0.03750 
0.06050 0.08700 -0.03150 
-0.01500 0.07450 -0.01150 
-0.04200 0.00200 -0.00950 
0.02550 0.05500 -0.07950 
-0.00350 0.05350 -0.06200 
-0.03850 0.01600 -0.01550 
0.04000 0.16450 -0.01800 
-0.01900 0.03100 -0.01100 
-0.06350 0.04200 -0.09150 
-0.04800 0.04800 0.00400 
0.01600 0.05350 -0.11800 
0.06400 0.11650 -0.01500 
0.03400 0.10250 0.01100 
-0.07200 0.00850 -0.08200 
-0.01000 0.00300 -0.07050 
-0.00350 0.07400 -0.04500 
-0.02700 0.07450 -0.06550 
-0.09200 -0.00950 -0.06100 
-0.05300 0.02350 -0.00400 
-0.04400 0.09950 -0.02300 
-0.05250 0.04550 -0.07900 
-0.05400 0.03100 -0.04000 
0.02900 0.05100 -0.04400 
0.00550 0.05700 -0.03450 
0.07200 0.15450 -0.01750 
0.06750 0.10300 -0.00650 
0.01100 0.14300 -0.08150 
-0.00000 0.01350 0.01550 
0.02150 0.15700 -0.13800 
-0.03700 0.09350 -0.06200 
0.01050 0.08550 0.01000 
0.02100 0.00900 -0.06750 
0.08300 0.16200 -0.07950 
0.04700 0.04250 -0.03700 
0.01050 0.03650 -0.10650 
0.06050 0.11550 -0.14150 
0.04700 0.08450 0.02450 
0.03800 0.04550 -0.06250 
0.04200 0.09800 0.07350 
0.00850 0.09700 0.06850 
0.00150 0.13150 -0.06950 
0.02250 0.14250 0.05250 
-0.07450 0.03750 -0.10400 
0.01800 0.14200 -0.00650 
0.03150 0.01300 -0.05150 
0.02800 0.01300 0.00450 
0.00250 0.05100 0.08300 
0.07200 0.08450 -0.04650 
-0.11500 -0.01050 -0.06000 
0.03250 0.02150 -0.01850 
0.01450 0.07300 -0.11050 
-0.00500 0.12250 -0.09250 
-0.02000 0.15300 0.03950 
0.01050 0.10100 -0.04650 
-0.01000 0.12000 -0.06650 
-0.04000 -0.00250 -0.08000 
-0.08350 0.02100 -0.00300 
-0.00050 -0.03950 -0.02350 
-0.05100 0.06050 -0.07500 
0.01150 -0.01350 -0.07050 
-0.01750 0.05550 -0.08050 
0.03700 0.07950 -0.09100 
-0.06400 0.08250 -0.00050 
0.10700 0.11250 0.03400 
0.01950 0.01850 -0.04850 
0.14350 0.13300 -0.08800 
0.06950 0.10600 -0.06000 
0.04950 0.14600 -0.02500 
-0.00550 0.13050 -0.03750 
-0.01350 0.11900 -0.06150 
-0.04350 0.02650 -0.12050 
-0.05200 -0.00500 -0.00550 
-0.01050 0.08400 -0.10250 
0.00950 0.13150 0.01250 
-0.07450 0.05450 -0.01500 
-0.05600 0.02050 -0.02900 
0.15200 0.04200 -0.10500 
-0.00300 0.04200 -0.03400 
0.06300 0.07200 -0.10500 
-0.02050 0.01350 -0.03500 
0.03450 0.07500 -0.03450 
0.02150 0.05550 -0.00300 
-0.07550 0.06650 -0.09650 
0.02150 0.08700 -0.05100 
0.02650 0.06450 -0.04000 
0.03450 0.10450 -0.06250 
0.04300 0.07350 0.01750 
0.00650 0.02450 -0.02500 
0.07050 0.15500 0.09500 
-0.02950 -0.00200 -0.06300 
0.03700 0.06850 0.09650 
0.02250 0.13300 -0.00600 
0.08050 0.03100 0.01050 
0.02650 0.06550 0.12050 
0.02700 0.13550 -0.11750 
0.06150 0.07000 -0.00750 
0.07150 0.16500 -0.06450 
0.04000 0.09700 -0.03850 
0.05850 0.16150 0.03100 
0.00250 0.06300 -0.03250 
0.07250 0.13900 -0.08550 
0.00050 0.13350 -0.06950 
0.00050 0.03450 -0.00950 
0.00750 -0.00400 -0.03700 
0.01300 0.07450 -0.05150 
-0.11800 0.04650 0.00500 
0.05800 0.08850 -0.07450 
0.06200 0.04700 -0.08800 
-0.04350 0.07900 -0.03150 
-0.02950 0.09850 -0.01900 
0.01950 0.14650 -0.03150 
-0.07000 -0.00400 -0.09950 
0.01950 0.10000 -0.02750 
0.03700 0.10250 -0.03600 
-0.00100 0.08800 -0.06500 
0.04100 0.10200 -0.00650 
0.00100 0.06200 -0.04850 
-0.06450 0.04500 -0.10300 
0.02300 0.13050 -0.00500 
-0.00400 -0.00300 -0.05400 
0.02350 0.09100 0.01950 
0.02300 0.10800 0.11100 
0.06550 0.03700 -0.00800 
0.08900 0.11100 -0.10500 
-0.02750 0.02400 -0.07900 
-0.02100 0.05250 -0.06200 
0.01300 0.05350 0.00300 
0.01700 0.02250 -0.11250 
0.04150 0.07300 -0.06550 
0.05850 0.04500 0.03450 
0.00400 0.03200 0.00700 
0.03750 0.08400 0.10700 
0.04250 0.07600 -0.08500 
-0.05050 0.02550 -0.04550 
0.04850 0.11550 -0.05400 
0.06100 0.05350 -0.05050 
0.02700 -0.01300 -0.06800 
-0.01050 0.08250 -0.01500 
-0.01550 0.03950 -0.00700 
0.03300 0.08850 -0.07800 
0.04900 0.07950 0.05900 
0.05200 0.09900 0.06750 
0.04850 0.05700 -0.08050 
0.04450 0.04900 -0.03200 
0.03650 0.09050 0.03400 
0.06800 0.02050 -0.11100 
0.04800 0.08850 -0.05600 
0.05800 0.17700 -0.07800 
-0.06900 0.00750 -0.11300 
-0.03700 0.09950 -0.01200 
0.00900 0.05300 -0.07400 
-0.01200 0.09400 -0.02750 
0.09700 0.12950 0.04100 
0.05250 0.18200 -0.05000 
-0.02500 0.06950 -0.07400 
-0.04900 0.00400 -0.00700 
0.04250 0.01150 -0.04050 
0.00850 0.02450 -0.06250 
0.01100 0.01700 -0.06250 
0.07450 0.13450 0.05000 
-0.00800 0.03650 -0.03700 
0.02150 0.09700 0.01500 
0.01250 0.02050 -0.16450 
0.01900 0.04400 0.00400 
0.06500 0.09100 0.00350 
0.01250 0.10650 0.00450 
0.06100 0.06750 -0.05300 
0.00550 0.10000 0.03600 
-0.03250 0.01900 -0.00550 
0.03200 0.03200 -0.07350 
0.15800 0.07950 0.00400 
-0.00900 -0.00450 -0.08250 
0.11750 0.05050 0.04450 
-0.02200 0.10050 -0.11800 
0.03400 0.14850 -0.04300 
0.00100 0.02550 -0.10850 
0.07200 0.20200 -0.01950 
-0.07400 0.05900 -0.07000 
0.04550 0.11100 0.04600 
0.02150 0.02550 -0.02900 
-0.01050 0.14000 -0.02900 
-0.04300 0.04300 0.06500 
-0.04400 0.02450 -0.10800 
-0.02600 -0.05100 -0.00850 
0.08850 0.08300 0.05650 
-0.05850 -0.01300 -0.11350 
0.02150 0.08300 0.01900 
-0.06600 0.03050 -0.11600 
-0.06750 0.01150 -0.06300 
-0.06000 0.00250 -0.01650 
0.07900 0.14550 -0.02150 
0.01950 0.07250 -0.02350 
0.05150 0.04000 -0.08000 
0.03250 0.09100 -0.07350 
-0.00800 0.04400 -0.12450 
-0.03850 0.03550 -0.09650 
0.04000 0.05050 0.04450 
-0.01300 -0.01900 -0.03150 
-0.05400 -0.03400 -0.13300 
-0.00800 0.08700 0.09850 
0.04000 0.03900 0.02600 
0.05200 0.04150 0.03550 
-0.03650 -0.02200 -0.04700 
-0.07150 0.06050 -0.07000 
0.01800 -0.00900 0.04050 
-0.00400 0.11750 -0.01200 
-0.08350 0.00200 -0.05900 
-0.01100 0.06000 -0.09200 
-0.05950 0.03700 -0.07100 
0.07500 0.11100 -0.02600 
-0.00700 0.05650 -0.01150 
0.03800 0.03650 -0.07900 
0.07400 0.08700 -0.09150 
0.01950 -0.05050 -0.00050 
0.06050 0.06300 -0.00400 
0.03900 0.10900 -0.03900 
0.01600 0.02550 -0.06300 
0.01550 0.03500 -0.09950 
-0.00800 0.03700 -0.02150 
-0.05950 0.08950 -0.05550 
0.03600 0.07200 -0.03100 
-0.04500 0.11200 -0.03150 
-0.00300 0.08050 -0.06700 
0.08650 0.03650 -0.02850 
0.01000 0.10750 -0.00200 
0.03350 0.13650 -0.02700 
-0.07000 0.04950 -0.11150 
0.00900 0.02700 -0.02100 
-0.02650 0.12550 0.00500 
0.08150 0.15100 0.01300 
-0.07150 -0.03050 -0.06900 
-0.05200 0.01600 -0.02450 
0.07400 0.10600 -0.12200 
0.01750 0.05600 0.03350 
0.08350 0.13750 -0.06300 
0.06950 0.07900 0.00100 
0.03500 -0.02800 -0.04850 
-0.06350 0.01200 -0.09300 
0.11050 0.19050 -0.04400 
-0.02850 0.01100 -0.13900 
0.05100 0.11450 -0.03300 
-0.04950 0.02400 -0.05400 
0.04150 0.14950 0.07200 
0.17300 0.08250 -0.04150 
0.00100 0.01350 0.04400 
0.10000 0.13850 -0.01350 
0.04150 0.10200 -0.00800 
0.04000 0.11550 -0.11100 
-0.04250 0.07250 -0.10400 
0.10150 0.09550 0.01850 
0.03850 0.10050 0.04200 
-0.03250 0.00350 -0.16000 
0.13500 0.13250 -0.15450 
0.00900 0.07800 -0.05050 
0.01850 0.08000 -0.00800 
-0.04400 -0.00100 -0.07900 
0.06550 0.07950 -0.04150 
-0.07100 0.00150 -0.11300 
0.04300 0.01800 0.00700 
0.00050 0.10650 -0.01250 
-0.04050 -0.01300 -0.06700 
-0.03250 0.11550 0.03750 
-0.01150 0.13950 -0.09050 
0.10750 0.07700 -0.05800 
0.03150 0.05300 -0.05600 
-0.00300 0.07300 -0.06400 
0.05200 0.03300 0.05200 
-0.00550 0.03900 -0.06050 
-0.00900 -0.01000 -0.02750 
0.12850 0.15550 -0.11600 
0.04050 0.07800 -0.06800 
0.02700 0.01150 -0.00800 
0.00600 0.02000 -0.03300 
0.10750 0.10600 -0.05900 
-0.07550 -0.01500 -0.09800 
-0.04500 0.03450 -0.12000 
0.07950 -0.00000 -0.02100 
-0.00100 0.08300 0.02400 
-0.01500 0.00600 -0.10600 
-0.01050 0.05950 -0.07850 
0.04600 0.15200 -0.07500 
-0.07250 0.04250 -0.15500 
0.03250 0.11800 -0.00700 
-0.02750 0.04550 -0.03200 
-0.00350 0.09700 -0.00550 
-0.01850 -0.01200 -0.01050 
0.03850 0.07450 0.02550 
-0.00800 0.07700 -0.05350 
-0.04500 -0.02550 0.01850 
0.05600 0.06500 -0.04050 
-0.01100 0.04100 0.01400 
-0.01450 0.12100 -0.11200 
0.02750 0.05350 0.00400 
0.04500 0.03500 -0.03550 
-0.04400 0.11150 -0.11150 
0.00200 0.08200 -0.01900 
-0.01550 0.08350 -0.01050 
-0.00650 0.08450 -0.09350 
-0.02200 0.04500 -0.11500 
0.01500 0.03150 -0.03350 
0.03550 0.02700 -0.06750 
-0.03750 0.09100 -0.03600 
-0.00950 0.04150 0.00350 
0.00550 -0.01500 -0.05400 
-0.05650 0.09700 -0.11250 
-0.06600 -0.02450 0.02250 
-0.02600 0.07800 -0.03150 
0.12700 0.12900 -0.01400 
0.09400 0.10750 -0.12700 
0.06550 0.18750 -0.01200 
0.03450 0.16550 0.01150 
-0.00250 -0.00350 -0.06250 
0.00400 0.07200 -0.10950 
-0.04650 0.01650 -0.05700 
-0.00950 0.17300 0.01650 
0.06550 0.04950 0.03800 
0.12700 0.19350 0.08950 
0.01300 0.13350 -0.10150 
0.07450 0.14750 -0.03900 
0.11300 0.17250 -0.04350 
0.03550 0.04700 0.07100 
0.02300 0.06500 -0.02350 
0.02900 -0.04000 0.03450 
0.02900 0.05250 0.04150 
0.07600 0.00050 -0.02650 
-0.02500 0.12700 -0.05550 
0.03750 0.18750 -0.01300 
0.07800 0.06250 0.02950 
0.02150 0.16400 -0.05350 
-0.07050 0.05200 -0.07700 
-0.02600 0.11300 -0.09000 
-0.02800 0.08350 -0.04350 
0.00100 0.00950 -0.04450 
0.04700 0.11900 0.00400 
0.11150 0.10900 -0.18400 
0.06900 0.05450 0.03850 
-0.00200 0.11750 -0.01250 
-0.01900 0.05200 0.03400 
0.01000 0.01950 -0.11550 
-0.07350 0.11300 -0.06100 
0.14750 0.05550 0.08200 
0.02300 0.10350 -0.10050 
0.10100 0.10750 -0.05400 
-0.04400 0.01500 -0.08250 
-0.01450 0.01950 -0.01100 
-0.01550 0.04350 -0.06300 