# vtk DataFile Version 2.0 
Xm, Ym, Zm, Uvecs, timestep 10143 
ASCII 
 
DATASET POLYDATA POINTS 508 float 
 -0.540   8.587 -71.791 
 -4.259   9.503 -70.988 
 -2.218   3.401 -68.392 
  3.357   7.997 -69.471 
  6.223   1.674 -71.500 
 -1.430   9.412 -69.409 
-13.024   3.411 -74.320 
 -0.228  10.632 -70.726 
  0.123  11.822 -67.365 
 -1.808   8.877 -74.093 
  4.412   8.097 -68.950 
  7.255   7.473 -68.248 
  0.759  -0.609 -69.469 
 -3.535   5.492 -67.142 
  5.654   6.760 -72.239 
  2.226  -1.160 -70.251 
 -0.631  -6.736 -74.639 
 -3.348  -3.307 -73.294 
 -1.181   5.319 -67.391 
-13.628   1.037 -72.508 
 -1.323  -2.312 -70.136 
-14.886  -4.920 -74.940 
 -3.966 -12.358 -69.240 
 15.765  -6.939 -71.615 
  0.714 -12.225 -71.608 
  1.404   4.453 -69.872 
 -9.609  -1.533 -71.385 
 -6.919   3.449 -61.627 
  6.274  -5.613 -73.314 
  6.873   7.027 -72.237 
 13.645   6.390 -67.674 
 -3.784  10.843 -66.555 
 -3.664   8.336 -64.704 
 -0.247   6.780 -68.109 
  1.807   2.125 -67.917 
 -4.223  10.090 -69.806 
 -7.286  -6.067 -71.401 
  4.871  10.297 -68.834 
 -8.652   6.608 -69.172 
  3.365  -2.196 -72.649 
  5.002   1.526 -66.804 
 12.727   6.268 -73.037 
 -2.347  -9.049 -69.599 
-10.877  11.037 -72.255 
  4.539  -0.943 -75.270 
-15.602  -2.834 -75.444 
 -2.503   2.668 -74.329 
  2.598   2.949 -65.871 
  8.520   9.369 -70.714 
 -2.009  -4.402 -65.659 
 -6.585  -4.895 -70.531 
  6.229   4.119 -67.731 
  5.060   3.890 -69.584 
 -0.645   6.941 -72.542 
 -4.213  11.163 -74.290 
  0.568  -3.491 -68.311 
  1.751  -5.328 -69.998 
 -6.075  -1.478 -66.319 
 -9.009   9.695 -62.841 
  1.749  -7.910 -70.969 
 -0.230  -3.414 -69.734 
 -0.709   0.401 -72.689 
-12.117  11.163 -69.186 
  0.732   3.938 -69.323 
 -5.892   9.486 -63.368 
 -6.583   3.524 -75.117 
-12.612  -4.551 -72.422 
 -5.732   4.096 -64.537 
-11.650  -9.430 -71.968 
  7.292   2.155 -71.279 
-11.923  -7.673 -70.388 
 -0.716  12.599 -67.679 
 -8.328 -10.919 -66.815 
-11.529  -4.652 -72.407 
 11.431   7.969 -70.362 
 -9.829   8.838 -75.505 
  2.829 -11.910 -68.714 
 -9.436  12.407 -68.058 
 -8.023   8.462 -64.799 
  0.656   2.178 -64.541 
 -5.001  11.955 -72.341 
 10.375   2.988 -69.047 
  0.464  -0.877 -71.734 
-14.660  -5.894 -73.731 
-10.755  -9.442 -70.317 
 10.875 -11.343 -67.834 
 -7.240  11.429 -68.655 
  3.971   2.904 -71.615 
 15.142  -0.204 -67.792 
  0.975  11.957 -66.198 
  0.097 -10.287 -73.297 
 -8.611   0.352 -67.425 
 -0.690  -0.478 -68.350 
  2.090   7.420 -65.016 
 -3.526  -6.992 -70.236 
 -1.538   3.591 -62.404 
  4.591  -8.284 -67.878 
  9.663   6.457 -70.213 
 -4.274  -1.144 -65.169 
  2.506   8.136 -63.450 
  0.989  13.210 -66.939 
  0.909   9.846 -69.196 
 -5.252   9.611 -65.370 
  4.008  -0.920 -69.804 
  9.851  -3.766 -65.988 
  5.360  11.464 -70.214 
  0.421   3.628 -72.133 
 11.202   6.899 -69.587 
  4.479  -4.651 -76.497 
  2.869  -9.655 -67.646 
 -2.621  12.956 -64.931 
  8.076  -1.554 -71.460 
  8.358   8.307 -68.215 
 -1.272  -5.862 -64.859 
 -4.051   3.277 -66.060 
  3.843  -2.188 -70.630 
-12.069  12.031 -69.099 
 -3.042   0.500 -74.696 
 -8.199   5.447 -68.851 
 13.747   0.299 -69.595 
 -8.785  -7.216 -68.147 
  0.175   3.091 -62.900 
 -7.871   6.722 -63.980 
 -4.152 -10.522 -71.442 
 -5.021   6.593 -63.796 
  6.384  -6.196 -68.204 
  1.224 -10.277 -69.362 
 -5.747   7.783 -61.999 
  9.144  -1.196 -67.013 
 -8.912   1.706 -71.692 
 13.929  10.701 -73.578 
-15.360  11.249 -70.964 
  2.167   5.661 -64.732 
-10.892  -3.809 -66.750 
 -4.053   2.921 -71.332 
  8.852  -6.114 -65.537 
  7.119  -2.745 -71.556 
  4.783 -11.860 -69.257 
  7.866   5.165 -76.104 
  3.333   6.072 -62.582 
  4.521   3.006 -69.151 
 -6.280   5.327 -76.908 
 14.687  -3.430 -72.273 
 -6.447 -10.572 -68.573 
  5.899 -10.002 -67.114 
  5.099   7.407 -66.448 
 -1.783  11.480 -74.697 
  7.903 -12.111 -69.440 
 -1.008  -8.082 -67.225 
  5.054  -6.797 -61.776 
 -0.469   9.927 -63.502 
  6.399   0.181 -64.683 
 -8.949   8.640 -65.355 
  7.883  -9.201 -70.169 
-13.874   3.716 -72.479 
  9.716  -4.134 -71.324 
  0.398  -2.311 -68.690 
-11.462   3.978 -74.430 
 -5.454   0.627 -72.618 
  1.039   5.871 -72.305 
-11.943  -1.383 -65.003 
 -8.223   5.028 -67.719 
 12.650  -0.859 -66.712 
  2.939  -1.960 -63.322 
-14.065   4.152 -71.101 
 -7.361   0.578 -69.517 
 -9.383  -4.335 -70.015 
 -0.342   8.119 -71.177 
 12.820   0.748 -66.367 
  8.120   0.324 -72.567 
 -3.103   7.037 -64.400 
 -8.884  -7.237 -71.465 
 11.123   5.535 -67.929 
  7.179  -4.712 -66.551 
 -3.369  12.157 -67.185 
  3.034 -12.191 -64.980 
  2.094  -6.577 -70.733 
 17.422   4.977 -69.816 
 -0.634  -8.661 -66.647 
  5.207  -3.476 -61.672 
-10.826   8.304 -68.892 
 -2.411  -7.082 -60.365 
 -6.702   5.478 -67.858 
 -8.209  10.025 -64.289 
 -6.295  -3.272 -73.816 
  3.726  -3.677 -64.017 
 14.805  11.613 -70.504 
 -5.360  -1.918 -70.604 
  8.026   5.018 -62.797 
 -7.008   1.589 -72.944 
 -7.540  -3.881 -72.348 
 10.508  -4.176 -66.703 
  8.733   4.100 -73.548 
  1.226   6.851 -74.602 
 11.088  12.688 -67.523 
 -4.465  -9.212 -66.076 
  7.623  12.547 -65.703 
-14.572  -8.974 -71.762 
-11.291   8.837 -68.214 
 12.276 -10.092 -71.815 
 -0.710   1.759 -65.625 
-15.522  -0.812 -72.361 
 11.151 -10.417 -72.107 
  9.991   9.132 -67.105 
 10.451   8.786 -69.609 
  9.424  -1.896 -64.502 
 15.603   1.954 -69.135 
  5.806  -4.375 -72.796 
-12.772  11.773 -72.715 
 -9.192  -6.088 -69.329 
 -9.954  -8.629 -71.661 
 -0.106  -0.042 -62.326 
  2.230   3.922 -62.588 
-10.262   5.659 -76.834 
  7.553  -1.821 -70.272 
  3.638  11.518 -71.627 
 10.544   1.149 -64.294 
  2.609 -11.113 -73.288 
-11.553   2.210 -73.395 
 -4.285 -10.584 -65.082 
-12.528   6.083 -66.357 
  1.078   2.927 -63.730 
  3.843   8.517 -61.008 
  3.021  -8.678 -70.535 
 -5.991  -9.541 -68.143 
 11.294   8.302 -64.853 
-10.209  10.867 -62.340 
 10.410   4.127 -63.234 
 -0.823  11.125 -65.392 
 -1.329  -1.933 -68.552 
  4.299   6.120 -69.539 
 -2.824  -3.732 -70.214 
-11.758   4.200 -71.835 
  5.059   4.671 -61.132 
 16.133   4.657 -68.343 
 -0.769  -2.766 -69.191 
  0.815  10.931 -73.043 
 12.902   2.410 -65.822 
-14.679   4.766 -70.033 
 12.499  -6.334 -68.174 
-14.437  -8.472 -75.792 
 13.234   0.143 -73.053 
-12.217   9.790 -65.206 
 15.093  -1.214 -67.356 
  7.467   0.487 -72.438 
  0.524  -7.588 -72.145 
 16.346  -2.575 -68.442 
-11.899 -11.723 -71.558 
 13.215  10.346 -74.304 
  7.170 -10.965 -72.396 
  4.037   5.101 -61.332 
 -3.577   4.124 -63.742 
 -4.511   3.978 -77.933 
 -7.186  -6.534 -63.493 
 15.149   0.338 -65.987 
 -3.058  -7.705 -69.620 
 -2.543  -5.620 -73.590 
 -2.053   4.135 -72.619 
  2.373   7.162 -62.365 
  9.869  -4.098 -68.676 
-13.899  10.079 -66.570 
  9.030  -7.280 -72.426 
  6.310  -7.274 -67.519 
 14.477   3.352 -65.804 
  6.122   1.784 -63.833 
 13.033   7.294 -73.116 
 -7.656   8.939 -76.229 
 16.557 -10.753 -70.910 
 11.028   3.939 -68.726 
 12.762 -10.035 -71.778 
 13.967   8.450 -63.118 
 -1.972   5.258 -73.407 
 -9.592  -7.898 -75.867 
 16.738   7.077 -69.210 
 12.392   2.718 -64.751 
 -8.574   4.627 -75.671 
 16.784  11.005 -67.520 
  5.073   4.272 -69.463 
-14.872   1.563 -72.791 
  4.502   7.776 -65.718 
 -0.047   9.543 -72.825 
  2.123  -1.982 -61.292 
 13.253  -2.014 -64.421 
 10.913   3.548 -62.763 
 -0.434   8.180 -61.661 
 12.558  -1.327 -72.514 
  9.569   8.939 -67.816 
 14.373  -1.131 -66.829 
  0.551   4.377 -62.651 
 12.079   1.129 -67.555 
  0.710   6.462 -67.375 
  0.607   6.168 -64.564 
  9.095   8.462 -62.927 
 15.091   0.414 -70.219 
  6.861   5.405 -62.424 
  4.058  -9.962 -70.468 
  9.911  -0.345 -72.561 
 10.070  -5.656 -73.206 
 13.128  12.375 -71.958 
  2.716  -3.011 -66.280 
-13.457  11.375 -66.206 
 -2.535   9.416 -74.243 
  4.104 -10.329 -70.370 
 -4.432  -3.394 -71.322 
 13.288   2.808 -74.383 
  4.592   1.437 -69.668 
 13.771   5.793 -64.104 
-15.122   4.787 -75.564 
  6.649 -10.249 -66.831 
  5.450   0.215 -64.968 
 -7.748 -12.493 -65.946 
 -0.306  -0.363 -68.663 
 -8.750   5.603 -70.487 
  3.268 -10.181 -62.063 
 -7.223   3.253 -69.082 
 -3.845   6.793 -69.428 
  2.190 -11.762 -62.511 
-15.727  -8.084 -70.096 
 -0.921   1.065 -68.682 
 10.593   0.323 -71.468 
 -7.617   6.434 -67.741 
 -8.812   2.420 -67.343 
 -9.771   6.719 -61.498 
 10.259 -12.727 -64.792 
  2.590 -11.776 -70.734 
 -0.120  -2.628 -73.107 
  3.884  -4.805 -67.145 
 12.061   2.804 -65.665 
  4.454 -10.113 -74.758 
  1.811  -8.718 -61.842 
-11.521  -3.981 -74.472 
  9.627  -7.118 -65.302 
 -6.847   2.325 -68.812 
 10.328 -10.820 -69.115 
 12.202  -5.041 -65.389 
 -3.330   9.561 -63.821 
 -6.805   2.175 -61.551 
 -5.564   1.390 -61.785 
  3.521   0.637 -70.208 
-10.252  11.944 -66.089 
 -5.104  11.018 -61.053 
 -7.511  -7.997 -65.530 
 -1.436   1.363 -66.519 
 11.509 -10.846 -63.663 
 -9.363  -8.403 -67.778 
-14.432  -3.172 -76.350 
 -0.575   8.575 -66.490 
  3.747  -0.408 -62.466 
 16.355  -7.575 -71.120 
  5.067  -0.205 -76.260 
 -9.029   3.897 -69.836 
-13.271  -6.120 -76.226 
  4.888  12.610 -70.897 
  8.580  10.015 -68.048 
  4.125 -10.789 -65.251 
-10.588   2.076 -66.072 
  8.629 -12.936 -66.442 
-10.435  -0.009 -70.821 
 -2.176   5.084 -56.733 
  1.172   2.941 -76.347 
-11.722 -10.950 -70.026 
  2.000  -9.572 -76.486 
 -8.135  -5.130 -72.090 
-11.871   1.571 -74.403 
 15.086   2.085 -70.234 
-13.129 -11.913 -71.594 
 14.944   3.917 -73.795 
  1.861   8.261 -60.325 
 -0.591  10.704 -61.361 
  4.869  -1.430 -67.674 
  3.942   0.516 -66.189 
 -9.939  -1.050 -74.210 
-10.303   4.409 -69.686 
  4.518   4.396 -76.796 
  6.517  -1.570 -59.077 
 17.036  -7.052 -64.469 
-15.804   6.710 -75.366 
 -6.657  -9.461 -70.329 
-11.529   9.771 -66.338 
  8.850  10.576 -64.495 
-11.970  -8.628 -64.366 
  0.274  12.060 -66.649 
 -0.956 -12.572 -66.828 
-13.538   5.749 -72.474 
 -8.591  -4.633 -70.649 
 -7.595   7.689 -77.415 
  9.924  -3.233 -76.460 
 17.030  -3.194 -67.005 
-14.727   1.687 -68.511 
 10.805   0.455 -59.891 
 -3.016  -8.775 -65.625 
 -0.978  11.037 -69.929 
 -1.230  -6.405 -72.245 
 -4.755 -11.093 -76.649 
 12.890 -10.135 -62.360 
 -8.765 -10.043 -66.987 
-15.171   4.518 -69.573 
 15.727   6.629 -68.311 
 -7.382   9.056 -60.505 
 14.509   8.159 -68.960 
-13.463  -0.750 -75.585 
  2.375  -2.756 -64.100 
  5.279 -11.325 -61.560 
-15.337 -12.182 -73.615 
  9.013   6.334 -60.986 
  3.064  12.497 -63.885 
  5.237  -9.302 -77.643 
 -3.280  -8.577 -64.276 
  9.305  -0.873 -61.541 
  6.022  -0.250 -60.221 
-11.868  -6.406 -68.656 
  2.152  -8.851 -73.793 
 -8.063  10.333 -59.496 
  7.067  -8.732 -63.938 
  7.154   6.821 -61.952 
-12.935   4.927 -72.094 
 14.962  -8.278 -69.018 
 -1.264   9.034 -61.218 
 13.887   1.968 -65.654 
  7.529   7.975 -60.217 
 17.125 -12.942 -69.531 
 -6.460  -7.243 -69.975 
 -3.454  -9.988 -69.469 
-12.991  -4.880 -70.965 
 11.051  -4.854 -66.491 
-12.610   4.970 -65.006 
-15.700   7.909 -73.496 
 15.711  11.846 -63.536 
 12.163  -6.942 -73.977 
-12.468  -2.596 -64.750 
  5.639  -0.360 -72.477 
 -9.518   2.825 -76.506 
  3.028   4.165 -61.441 
-11.736   3.997 -61.069 
 15.287  -3.722 -63.743 
  1.607   0.250 -58.151 
 11.787  -1.457 -70.493 
 13.428   6.742 -73.385 
-13.515  -7.334 -70.093 
 13.745  -9.823 -62.639 
 -5.723  -4.634 -70.412 
  2.944  -0.250 -73.060 
 14.819  -3.928 -71.102 
 13.017   6.412 -69.673 
 -6.731 -12.488 -67.232 
  9.383 -10.433 -63.965 
 16.919  -3.105 -74.459 
 16.716  -5.329 -65.148 
-12.812 -12.096 -77.328 
 12.343   3.739 -65.530 
 13.259 -10.816 -70.437 
 12.730   4.107 -66.328 
 -5.471  -9.845 -68.017 
 -1.692  11.514 -70.432 
 13.487   9.783 -68.790 
-15.252   1.692 -75.910 
  4.431   2.946 -73.729 
 15.805  -5.230 -68.450 
 -3.168  -7.895 -67.014 
 12.247   3.002 -75.156 
-11.521   8.907 -60.189 
  8.396   5.163 -69.407 
 13.699   0.511 -75.127 
  8.256  11.573 -64.543 
  9.075   2.499 -59.766 
 -6.419  10.395 -75.763 
 14.448  -3.830 -73.015 
 14.929   2.500 -67.687 
  7.454  12.047 -67.445 
 -9.988  10.370 -76.166 
-13.323   1.443 -71.073 
-11.486   1.455 -72.826 
  5.576 -11.570 -63.028 
 -3.665  -0.898 -60.376 
-15.096   8.885 -69.423 
 -9.015  -9.114 -76.682 
 -2.649   1.529 -66.879 
-14.454   3.281 -72.424 
 -2.905 -12.023 -73.082 
  8.792  -0.424 -67.913 
 -6.384  -9.408 -75.732 
 -3.944  10.874 -72.913 
 13.935  11.348 -70.648 
 -2.287  12.619 -62.625 
  5.680   9.375 -66.716 
 -6.524  10.399 -71.251 
-12.843  11.758 -64.825 
 17.971   7.726 -71.909 
-13.839   8.342 -76.359 
 14.240  -6.550 -70.689 
  0.740   8.888 -70.749 
  4.585  -8.097 -72.206 
 17.277  11.780 -70.644 
 -3.300  -2.974 -63.670 
 -8.769 -12.563 -68.382 
 -3.468  -4.838 -68.662 
-12.339   5.924 -69.688 
  1.230 -10.175 -68.299 
 12.952 -12.520 -66.176 
  3.869 -11.021 -65.679 
 16.039  -9.679 -71.871 
 11.589   0.949 -74.476 
 -9.233  12.196 -61.363 
-13.573  -6.047 -75.270 
 13.393   9.198 -60.126 
 16.186  -0.035 -76.038 
  0.516  13.239 -69.000 
  4.135  -2.041 -62.020 

 VERTICES 508 1016 
1 0 
1 1 
1 2 
1 3 
1 4 
1 5 
1 6 
1 7 
1 8 
1 9 
1 10 
1 11 
1 12 
1 13 
1 14 
1 15 
1 16 
1 17 
1 18 
1 19 
1 20 
1 21 
1 22 
1 23 
1 24 
1 25 
1 26 
1 27 
1 28 
1 29 
1 30 
1 31 
1 32 
1 33 
1 34 
1 35 
1 36 
1 37 
1 38 
1 39 
1 40 
1 41 
1 42 
1 43 
1 44 
1 45 
1 46 
1 47 
1 48 
1 49 
1 50 
1 51 
1 52 
1 53 
1 54 
1 55 
1 56 
1 57 
1 58 
1 59 
1 60 
1 61 
1 62 
1 63 
1 64 
1 65 
1 66 
1 67 
1 68 
1 69 
1 70 
1 71 
1 72 
1 73 
1 74 
1 75 
1 76 
1 77 
1 78 
1 79 
1 80 
1 81 
1 82 
1 83 
1 84 
1 85 
1 86 
1 87 
1 88 
1 89 
1 90 
1 91 
1 92 
1 93 
1 94 
1 95 
1 96 
1 97 
1 98 
1 99 
1 100 
1 101 
1 102 
1 103 
1 104 
1 105 
1 106 
1 107 
1 108 
1 109 
1 110 
1 111 
1 112 
1 113 
1 114 
1 115 
1 116 
1 117 
1 118 
1 119 
1 120 
1 121 
1 122 
1 123 
1 124 
1 125 
1 126 
1 127 
1 128 
1 129 
1 130 
1 131 
1 132 
1 133 
1 134 
1 135 
1 136 
1 137 
1 138 
1 139 
1 140 
1 141 
1 142 
1 143 
1 144 
1 145 
1 146 
1 147 
1 148 
1 149 
1 150 
1 151 
1 152 
1 153 
1 154 
1 155 
1 156 
1 157 
1 158 
1 159 
1 160 
1 161 
1 162 
1 163 
1 164 
1 165 
1 166 
1 167 
1 168 
1 169 
1 170 
1 171 
1 172 
1 173 
1 174 
1 175 
1 176 
1 177 
1 178 
1 179 
1 180 
1 181 
1 182 
1 183 
1 184 
1 185 
1 186 
1 187 
1 188 
1 189 
1 190 
1 191 
1 192 
1 193 
1 194 
1 195 
1 196 
1 197 
1 198 
1 199 
1 200 
1 201 
1 202 
1 203 
1 204 
1 205 
1 206 
1 207 
1 208 
1 209 
1 210 
1 211 
1 212 
1 213 
1 214 
1 215 
1 216 
1 217 
1 218 
1 219 
1 220 
1 221 
1 222 
1 223 
1 224 
1 225 
1 226 
1 227 
1 228 
1 229 
1 230 
1 231 
1 232 
1 233 
1 234 
1 235 
1 236 
1 237 
1 238 
1 239 
1 240 
1 241 
1 242 
1 243 
1 244 
1 245 
1 246 
1 247 
1 248 
1 249 
1 250 
1 251 
1 252 
1 253 
1 254 
1 255 
1 256 
1 257 
1 258 
1 259 
1 260 
1 261 
1 262 
1 263 
1 264 
1 265 
1 266 
1 267 
1 268 
1 269 
1 270 
1 271 
1 272 
1 273 
1 274 
1 275 
1 276 
1 277 
1 278 
1 279 
1 280 
1 281 
1 282 
1 283 
1 284 
1 285 
1 286 
1 287 
1 288 
1 289 
1 290 
1 291 
1 292 
1 293 
1 294 
1 295 
1 296 
1 297 
1 298 
1 299 
1 300 
1 301 
1 302 
1 303 
1 304 
1 305 
1 306 
1 307 
1 308 
1 309 
1 310 
1 311 
1 312 
1 313 
1 314 
1 315 
1 316 
1 317 
1 318 
1 319 
1 320 
1 321 
1 322 
1 323 
1 324 
1 325 
1 326 
1 327 
1 328 
1 329 
1 330 
1 331 
1 332 
1 333 
1 334 
1 335 
1 336 
1 337 
1 338 
1 339 
1 340 
1 341 
1 342 
1 343 
1 344 
1 345 
1 346 
1 347 
1 348 
1 349 
1 350 
1 351 
1 352 
1 353 
1 354 
1 355 
1 356 
1 357 
1 358 
1 359 
1 360 
1 361 
1 362 
1 363 
1 364 
1 365 
1 366 
1 367 
1 368 
1 369 
1 370 
1 371 
1 372 
1 373 
1 374 
1 375 
1 376 
1 377 
1 378 
1 379 
1 380 
1 381 
1 382 
1 383 
1 384 
1 385 
1 386 
1 387 
1 388 
1 389 
1 390 
1 391 
1 392 
1 393 
1 394 
1 395 
1 396 
1 397 
1 398 
1 399 
1 400 
1 401 
1 402 
1 403 
1 404 
1 405 
1 406 
1 407 
1 408 
1 409 
1 410 
1 411 
1 412 
1 413 
1 414 
1 415 
1 416 
1 417 
1 418 
1 419 
1 420 
1 421 
1 422 
1 423 
1 424 
1 425 
1 426 
1 427 
1 428 
1 429 
1 430 
1 431 
1 432 
1 433 
1 434 
1 435 
1 436 
1 437 
1 438 
1 439 
1 440 
1 441 
1 442 
1 443 
1 444 
1 445 
1 446 
1 447 
1 448 
1 449 
1 450 
1 451 
1 452 
1 453 
1 454 
1 455 
1 456 
1 457 
1 458 
1 459 
1 460 
1 461 
1 462 
1 463 
1 464 
1 465 
1 466 
1 467 
1 468 
1 469 
1 470 
1 471 
1 472 
1 473 
1 474 
1 475 
1 476 
1 477 
1 478 
1 479 
1 480 
1 481 
1 482 
1 483 
1 484 
1 485 
1 486 
1 487 
1 488 
1 489 
1 490 
1 491 
1 492 
1 493 
1 494 
1 495 
1 496 
1 497 
1 498 
1 499 
1 500 
1 501 
1 502 
1 503 
1 504 
1 505 
1 506 
1 507 
POINT_DATA 508 
SCALARS MeanU double 1 
LOOKUP_TABLE default
0.08677 
0.16127 
0.15544 
0.05848 
0.18396 
0.14268 
0.17869 
0.09321 
0.07316 
0.14019 
0.05206 
0.05265 
0.20999 
0.07086 
0.14948 
0.21769 
0.10098 
0.14773 
0.11404 
0.17945 
0.16096 
0.12358 
0.10922 
0.08479 
0.08235 
0.16568 
0.07056 
0.16194 
0.15413 
0.12407 
0.11172 
0.10184 
0.10342 
0.06072 
0.29006 
0.06685 
0.12197 
0.05971 
0.13033 
0.14658 
0.24212 
0.14738 
0.12499 
0.12644 
0.14512 
0.24981 
0.25932 
0.22658 
0.09682 
0.18570 
0.12216 
0.11241 
0.15509 
0.14903 
0.11151 
0.16547 
0.09366 
0.27323 
0.12069 
0.15433 
0.16293 
0.24282 
0.13863 
0.22050 
0.12764 
0.15036 
0.11506 
0.15941 
0.08640 
0.24144 
0.08201 
0.05584 
0.14811 
0.11278 
0.13958 
0.16426 
0.09029 
0.15316 
0.08283 
0.26138 
0.11629 
0.14733 
0.19758 
0.15279 
0.12786 
0.10299 
0.10143 
0.15591 
0.14725 
0.08836 
0.08267 
0.19717 
0.23364 
0.13161 
0.11097 
0.14556 
0.19512 
0.13616 
0.22036 
0.12014 
0.11538 
0.07946 
0.07285 
0.27933 
0.18208 
0.08023 
0.23729 
0.17379 
0.08740 
0.10834 
0.11508 
0.23825 
0.06729 
0.28717 
0.17863 
0.25263 
0.16914 
0.23588 
0.22030 
0.15169 
0.15633 
0.23326 
0.09786 
0.15352 
0.07023 
0.21003 
0.06903 
0.10657 
0.10056 
0.19308 
0.15401 
0.19835 
0.10600 
0.17232 
0.28795 
0.18165 
0.21815 
0.07896 
0.12740 
0.19367 
0.18519 
0.09418 
0.16127 
0.13987 
0.12069 
0.07286 
0.15330 
0.07619 
0.17482 
0.25583 
0.08314 
0.20819 
0.05712 
0.15819 
0.19753 
0.21058 
0.18158 
0.10557 
0.19983 
0.14058 
0.18778 
0.17373 
0.09984 
0.21455 
0.16098 
0.17464 
0.13319 
0.12547 
0.13927 
0.21837 
0.13149 
0.19389 
0.14222 
0.31995 
0.10900 
0.09926 
0.08741 
0.12158 
0.09877 
0.26533 
0.13197 
0.28369 
0.14366 
0.10278 
0.12115 
0.22493 
0.15169 
0.21561 
0.12525 
0.22418 
0.07120 
0.17232 
0.19523 
0.08557 
0.11437 
0.12520 
0.06841 
0.13182 
0.11859 
0.12462 
0.23043 
0.13599 
0.16545 
0.04738 
0.12298 
0.06326 
0.04314 
0.23460 
0.08938 
0.14247 
0.09719 
0.14049 
0.19911 
0.12211 
0.30866 
0.09389 
0.07280 
0.12701 
0.10651 
0.07921 
0.11708 
0.24195 
0.14031 
0.11165 
0.24819 
0.06880 
0.11143 
0.10472 
0.10238 
0.17661 
0.13448 
0.24320 
0.21132 
0.09756 
0.14490 
0.16630 
0.09319 
0.14255 
0.18326 
0.11720 
0.15365 
0.13106 
0.07502 
0.14418 
0.19035 
0.13741 
0.09289 
0.10813 
0.16292 
0.11343 
0.11335 
0.15743 
0.13114 
0.32168 
0.14116 
0.10925 
0.07443 
0.18568 
0.11434 
0.16149 
0.11072 
0.16785 
0.29655 
0.14715 
0.19020 
0.19752 
0.09844 
0.07821 
0.10283 
0.13742 
0.09505 
0.10714 
0.08120 
0.15750 
0.11584 
0.16019 
0.22860 
0.13841 
0.19554 
0.11025 
0.06835 
0.13867 
0.18394 
0.13672 
0.22295 
0.16126 
0.06044 
0.11622 
0.19017 
0.05197 
0.10101 
0.10042 
0.08366 
0.08651 
0.13018 
0.12666 
0.24598 
0.21359 
0.03514 
0.27215 
0.07114 
0.14694 
0.14102 
0.18103 
0.14347 
0.15692 
0.09663 
0.17364 
0.08414 
0.26079 
0.16510 
0.23346 
0.21518 
0.09984 
0.21036 
0.15651 
0.11552 
0.15397 
0.20461 
0.24277 
0.10044 
0.24373 
0.15088 
0.09634 
0.10434 
0.09754 
0.34552 
0.11746 
0.13520 
0.07856 
0.14004 
0.18930 
0.19419 
0.09983 
0.19033 
0.08645 
0.14343 
0.14400 
0.14116 
0.12157 
0.14853 
0.25785 
0.27486 
0.07239 
0.16511 
0.06052 
0.13168 
0.26403 
0.19941 
0.12603 
0.24317 
0.09352 
0.08947 
0.09301 
0.09842 
0.21211 
0.13286 
0.18081 
0.10748 
0.13975 
0.08975 
0.13667 
0.12033 
0.11017 
0.07496 
0.15201 
0.09501 
0.13567 
0.07525 
0.30272 
0.23964 
0.11516 
0.24659 
0.08721 
0.26286 
0.21361 
0.18281 
0.16466 
0.10608 
0.06162 
0.17012 
0.08834 
0.11310 
0.23311 
0.13790 
0.05703 
0.24267 
0.06749 
0.17194 
0.09234 
0.06759 
0.14920 
0.14061 
0.10579 
0.08098 
0.13044 
0.18417 
0.15907 
0.09643 
0.16139 
0.22665 
0.16198 
0.09668 
0.13311 
0.08661 
0.11249 
0.10102 
0.31447 
0.13188 
0.22760 
0.10509 
0.15949 
0.10951 
0.18256 
0.17828 
0.23994 
0.07123 
0.11206 
0.14501 
0.13544 
0.05809 
0.16548 
0.10971 
0.11329 
0.22659 
0.11784 
0.25491 
0.17736 
0.17273 
0.16379 
0.29569 
0.10431 
0.15140 
0.18622 
0.17078 
0.24931 
0.22202 
0.17611 
0.12160 
0.12496 
0.17187 
0.21173 
0.13613 
0.12167 
0.11648 
0.16405 
0.10110 
0.19930 
0.09251 
0.15774 
0.18067 
0.12800 
0.26221 
0.08827 
0.19230 
0.17400 
0.15381 
0.09471 
0.09914 
0.14610 
0.08992 
0.09887 
0.11738 
0.05279 
0.06671 
0.10633 
0.19630 
0.15384 
0.07640 
0.18606 
0.15545 
0.10637 
0.20024 
0.23477 
0.18798 
0.13712 
0.18399 
0.22146 
0.23017 
0.09514 
0.17666 
0.08259 
0.15527 
0.11365 
0.08208 
0.27209 
0.06372 
0.16550 
0.08584 
0.10765 
0.10337 
0.15596 
0.09821 
0.22904 
0.24637 
0.25610 
0.25060 
0.07023 
0.06052 
0.11327 
0.06834 
0.21720 
0.08137 
0.15713 
0.14715 
0.12651 
0.06452 
0.31908 

 VECTORS Umean float 
0.01250 0.08300 -0.02200 
-0.01050 0.15650 -0.03750 
-0.00600 0.12050 -0.09800 
-0.01200 0.04450 -0.03600 
0.07850 0.08750 -0.14150 
-0.00500 0.14250 0.00500 
0.00500 0.14800 -0.10000 
-0.02350 0.09000 0.00600 
-0.02400 0.05900 0.03600 
0.02850 0.10450 -0.08900 
-0.01050 0.03400 -0.03800 
0.00300 0.02250 -0.04750 
0.03500 0.07100 -0.19450 
-0.02950 0.06200 0.01750 
0.07350 0.08450 -0.09900 
0.07950 0.08600 -0.18350 
0.06250 0.05900 -0.05300 
0.03350 0.03100 -0.14050 
0.04000 0.08550 -0.06400 
0.02750 0.07750 -0.15950 
0.07500 0.03100 -0.13900 
0.01450 0.10250 -0.06750 
0.07800 0.01200 -0.07550 
-0.00200 0.06450 -0.05500 
0.06550 0.04900 -0.00950 
0.00550 0.14150 -0.08600 
0.05000 0.04150 -0.02750 
0.14950 0.05700 0.02500 
0.07150 0.03300 -0.13250 
0.06950 0.06750 -0.07750 
-0.00700 0.10650 -0.03300 
-0.03750 0.08650 0.03850 
-0.05250 0.08800 -0.01400 
-0.01750 0.05700 -0.01150 
0.03750 0.13400 -0.25450 
-0.01000 0.06300 0.02000 
0.06900 0.07800 -0.06350 
0.00100 0.05350 0.02650 
-0.01500 0.08100 -0.10100 
0.09750 0.04450 -0.10000 
0.11800 0.10500 -0.18350 
0.10750 0.00800 -0.10050 
0.05500 0.08350 -0.07500 
0.06650 0.10750 0.00300 
0.09750 0.08200 -0.06950 
0.09600 0.23000 -0.01700 
0.13200 0.11300 -0.19250 
0.06850 0.11550 -0.18250 
0.05900 0.05950 -0.04850 
0.07000 0.15200 -0.08050 
0.03950 0.10000 -0.05800 
0.05750 0.02000 -0.09450 
0.06900 0.03050 -0.13550 
-0.02400 0.14550 -0.02150 
0.02050 0.07650 -0.07850 
0.12150 0.09400 -0.06150 
0.07300 0.00450 -0.05850 
0.11000 0.15150 -0.19900 
-0.03100 0.11500 -0.01950 
0.14000 0.03200 -0.05650 
0.10900 0.09700 -0.07250 
0.04050 0.13750 -0.19600 
0.02150 0.12000 0.06600 
-0.01750 0.14350 -0.16650 
-0.06100 0.11050 -0.01900 
-0.00350 0.13250 -0.07100 
0.03500 0.07850 -0.07650 
0.06150 0.05950 -0.13450 
0.05650 0.02350 -0.06100 
0.09650 0.08700 -0.20350 
-0.00800 0.03100 -0.07550 
-0.02900 0.03900 0.02750 
0.02100 0.04950 -0.13800 
-0.01100 0.07500 -0.08350 
0.05350 0.07550 -0.10450 
-0.02450 0.12350 -0.10550 
0.04050 0.07750 -0.02250 
0.01050 0.14800 0.03800 
-0.02000 0.07000 -0.03950 
0.06850 0.09900 -0.23200 
0.03000 0.10400 -0.04250 
0.01400 0.11300 -0.09350 
0.00900 0.10600 -0.16650 
0.02750 0.13300 -0.07000 
-0.01900 0.01050 -0.12600 
0.04800 -0.03150 -0.08550 
-0.00300 0.09800 0.02600 
0.07400 0.09450 -0.09950 
0.06350 0.12700 -0.03900 
-0.03500 0.06100 0.05350 
0.07050 0.03800 -0.02050 
0.08550 0.14950 -0.09600 
0.07000 0.10800 -0.19500 
0.03000 0.05950 -0.11350 
0.00650 0.10100 -0.04550 
0.07650 0.06800 -0.10350 
0.12150 0.03750 -0.14800 
0.10850 0.06250 -0.05350 
0.06000 0.18450 -0.10450 
0.02200 0.11200 -0.03750 
-0.06900 0.06950 0.06100 
-0.03700 0.06450 0.02800 
-0.01250 0.06150 0.03700 
0.10700 0.08950 -0.24200 
0.11200 0.05150 -0.13400 
-0.04400 0.02900 -0.06050 
0.09300 0.19000 -0.10750 
0.06000 0.15800 -0.04050 
0.07850 0.03150 -0.02200 
0.08350 0.00200 -0.06900 
0.02900 0.07850 0.07900 
0.18550 0.06100 -0.13650 
-0.02850 0.04600 -0.04000 
0.13350 0.20850 -0.14550 
0.08950 0.07350 -0.13600 
0.13150 0.07700 -0.20150 
0.00250 0.15850 0.05900 
0.06100 0.10250 -0.20350 
0.01500 0.11550 -0.18700 
0.03100 0.13200 -0.06800 
0.03150 0.10600 -0.11050 
0.05400 0.13350 -0.18350 
-0.01100 0.07450 -0.06250 
0.07750 0.03950 -0.12650 
-0.00950 0.06550 0.02350 
0.10000 0.02500 -0.18300 
0.06150 0.02600 -0.01750 
0.02050 0.10350 -0.01500 
0.01300 0.06950 -0.07150 
0.08400 0.10100 -0.14150 
0.06400 0.03150 -0.13650 
-0.02900 0.19000 -0.04900 
0.02550 0.09300 -0.04400 
0.09100 0.07850 -0.12350 
0.04750 0.17000 -0.22750 
0.14750 0.00250 -0.10600 
0.12250 0.03000 -0.17800 
0.06800 0.03450 -0.02050 
0.06650 0.08050 -0.07300 
0.13300 0.11850 -0.07600 
0.04500 0.03600 -0.17600 
0.05200 0.05700 -0.05400 
0.09500 0.02450 -0.12800 
0.04950 0.09250 -0.09250 
0.11450 0.00350 -0.03800 
0.01100 0.07200 0.00200 
-0.02600 0.13800 -0.06150 
0.07000 0.01100 -0.02800 
0.09300 0.07850 -0.12550 
0.00900 0.08100 -0.24250 
-0.04750 0.06200 0.02850 
0.07650 0.07850 -0.17700 
0.00700 0.04900 -0.02850 
0.09450 -0.01850 -0.12550 
-0.00850 0.14300 -0.13600 
0.15250 0.00800 -0.14500 
0.14100 0.08850 -0.07250 
0.04150 0.08350 -0.04950 
0.08250 0.05950 -0.17200 
0.08300 0.09300 -0.06500 
0.15900 0.07500 -0.06600 
-0.01750 0.07750 -0.15450 
-0.01350 0.07500 -0.06450 
0.08700 0.07900 -0.17950 
0.03800 0.11550 -0.10550 
0.02850 0.10250 -0.13850 
-0.00000 0.07050 -0.11300 
0.06850 0.09300 -0.04900 
0.02250 0.11350 -0.07750 
0.15850 0.08900 -0.12100 
-0.02650 0.08750 -0.09450 
0.09800 0.08600 -0.14350 
0.02100 0.13950 -0.01800 
0.14600 0.05150 -0.28000 
-0.00550 0.09050 0.06050 
0.04300 0.07550 0.04800 
0.07600 0.00400 -0.04300 
0.05300 0.09400 -0.05600 
0.05100 0.03500 -0.07700 
0.08950 0.09000 -0.23300 
0.04200 0.09900 -0.07650 
0.04800 0.09350 -0.26350 
0.00150 0.06900 -0.12600 
-0.02250 0.09900 -0.01600 
-0.01400 0.12000 0.00900 
0.11100 0.04000 -0.19150 
0.14700 0.01450 -0.03450 
0.13100 0.13450 -0.10600 
0.08850 0.07750 -0.04300 
0.06000 0.11150 -0.18500 
0.03950 0.05500 -0.02200 
0.12150 0.04400 -0.11400 
0.11800 0.06000 -0.14350 
0.05600 0.03850 -0.05200 
0.07150 -0.04600 0.07650 
0.08500 0.02300 -0.08900 
-0.04600 0.00800 0.05000 
0.01850 0.11200 -0.06700 
0.07750 0.08750 -0.02000 
0.05900 0.04300 -0.10100 
0.09100 0.08000 -0.19600 
0.06700 0.07800 -0.08900 
0.04950 0.03000 -0.15500 
0.01000 0.03300 -0.03250 
0.04100 0.08800 -0.07550 
0.04900 0.00050 -0.04000 
-0.00400 0.04200 -0.00900 
0.10150 -0.00150 -0.21150 
0.01350 0.07800 -0.04150 
0.01550 0.00600 -0.14150 
0.04450 0.02400 -0.08300 
0.05900 0.05400 -0.11550 
0.06200 0.09350 -0.16450 
0.00750 0.11850 -0.02850 
0.17750 -0.00250 -0.25250 
-0.06450 0.06800 -0.00550 
0.00050 0.04400 -0.05800 
0.09550 0.05400 -0.06400 
0.03650 0.06450 -0.07650 
-0.01150 -0.02850 -0.07300 
-0.02650 0.06600 -0.09300 
0.11550 0.12000 -0.17550 
0.03550 0.07050 0.11600 
0.08150 0.02050 -0.07350 
0.04400 0.04800 -0.23950 
0.03400 0.05600 -0.02100 
-0.03500 0.10450 0.01650 
0.08000 0.06150 -0.02800 
0.00550 0.09000 0.04850 
0.11750 0.06450 -0.11500 
0.10600 0.05700 0.06000 
0.16550 0.10000 -0.14750 
0.03150 0.15950 -0.13500 
0.05450 0.06200 -0.05200 
0.01950 0.10400 -0.09900 
0.14500 0.06050 -0.05450 
-0.06250 0.06700 -0.01700 
0.06900 0.12250 -0.02350 
0.03900 0.13200 -0.12100 
0.03450 0.06600 -0.09050 
0.01200 0.14800 0.03950 
0.03500 0.03450 -0.12150 
0.06150 0.03300 0.02750 
0.00350 0.13500 -0.05050 
0.14900 0.08500 -0.08250 
0.09700 0.01600 -0.09600 
0.06250 0.06850 -0.00550 
0.04500 0.00800 -0.09800 
0.10300 0.01350 -0.12550 
0.06450 0.05550 -0.07500 
0.07400 0.07050 -0.04900 
0.06050 0.06500 -0.13000 
0.07350 0.09150 -0.05850 
-0.03350 0.12500 -0.29450 
-0.00450 0.13500 -0.04100 
0.03050 0.08350 -0.06350 
0.04150 0.00600 -0.06150 
0.01900 0.18200 -0.03150 
0.08250 0.03400 -0.07150 
0.07300 0.04450 -0.13700 
0.08800 0.06700 -0.00500 
0.13400 0.04700 -0.08950 
0.20600 0.06400 -0.20350 
0.04050 0.12350 -0.06900 
0.13300 0.05350 -0.12500 
0.13950 0.03250 -0.13600 
0.01100 0.07950 -0.05700 
0.06650 0.03150 -0.02650 
0.02800 0.09700 -0.01950 
0.08650 0.01650 -0.10550 
0.01500 0.07300 -0.05900 
0.07200 0.06700 -0.04250 
0.01600 0.07150 -0.03500 
0.12900 0.00800 -0.09000 
0.03950 0.08700 -0.06550 
0.03600 0.14050 -0.06800 
0.16100 0.11450 -0.11500 
0.06100 0.03400 -0.11950 
0.00550 0.07500 -0.18050 
0.01250 0.10950 0.00300 
-0.01400 0.05400 0.03950 
0.09250 0.04700 -0.09200 
0.07250 0.16900 -0.00400 
0.05100 0.09550 -0.08350 
0.06650 0.12250 -0.17400 
0.07150 0.00350 -0.14450 
0.01000 0.01900 -0.05650 
0.00400 0.10600 -0.04750 
0.08450 0.14850 -0.08350 
0.01250 0.03200 0.03900 
0.00050 0.10100 0.00150 
0.05600 0.08150 -0.01750 
0.01750 0.07650 0.02900 
-0.00600 0.06850 -0.05250 
0.07950 0.08750 -0.05450 
0.08700 0.00300 -0.09200 
0.12400 0.12400 -0.17250 
0.10050 0.05900 -0.17900 
0.01150 -0.03150 0.01050 
0.16550 0.15500 -0.15050 
0.01950 0.04000 0.05550 
0.05000 0.12000 -0.06850 
0.06900 0.01550 -0.12200 
0.08000 0.11050 -0.11900 
0.07300 0.00150 -0.12350 
0.06650 0.03600 -0.13750 
0.01100 0.09600 -0.00100 
0.01300 0.05250 -0.16500 
0.06850 -0.01500 -0.04650 
0.08450 0.05050 -0.24150 
-0.02950 -0.01750 -0.16150 
0.06400 0.10300 -0.19950 
0.03750 0.14500 -0.15450 
0.01300 -0.01400 -0.09800 
0.01400 0.10100 -0.18400 
0.06300 0.13350 -0.05200 
0.11400 -0.01850 0.00250 
0.07100 0.12250 -0.06050 
0.06500 0.06000 -0.18450 
0.18550 0.09500 -0.12450 
0.00200 0.07000 -0.07200 
0.07250 0.14050 -0.18550 
0.04450 0.10800 -0.09550 
-0.01050 0.01550 -0.09450 
0.04750 0.06050 -0.07050 
0.08050 0.05050 -0.02200 
0.17400 0.11250 -0.27650 
0.05100 0.08750 -0.05950 
0.13050 0.03100 -0.01700 
0.03500 0.06100 -0.03500 
0.07250 0.10000 -0.06600 
0.15100 0.00600 -0.11400 
0.02700 0.05250 -0.18500 
0.06300 -0.02850 -0.07200 
0.16000 0.01800 -0.10150 
-0.03900 0.07150 0.02900 
0.08900 0.10050 -0.05050 
0.11200 0.07150 -0.05550 
0.06000 0.04900 -0.11800 
-0.01950 0.10150 0.06400 
-0.03350 0.13300 0.05700 
0.12000 0.05500 -0.22150 
0.11200 0.13200 -0.21350 
0.01350 0.06300 -0.03300 
0.08250 0.14300 0.00250 
0.04450 0.02850 -0.02950 
-0.01950 0.12800 0.02400 