# vtk DataFile Version 2.0 
Xm, Ym, Zm, Uvecs, timestep 10035 
ASCII 
 
DATASET POLYDATA POINTS 517 float 
 -0.724   0.597 -70.811 
  7.056   8.308 -72.065 
 -4.648  -5.582 -70.266 
  9.392   7.907 -70.546 
 -4.454  -1.885 -71.532 
  3.139   5.884 -69.678 
  1.601   4.591 -68.703 
 -5.973   7.453 -73.770 
  1.654   2.869 -70.009 
 -1.186   9.419 -72.386 
 -0.901   6.254 -70.520 
  2.857  -1.624 -72.670 
  3.912   1.817 -67.874 
  1.843  -6.000 -70.985 
 -2.120  -6.489 -69.511 
  5.226   1.873 -68.006 
-10.232   2.815 -70.440 
 -5.362   1.189 -72.290 
 -2.455   2.086 -61.295 
  3.579   6.991 -67.159 
  5.122  11.255 -69.761 
 -5.928  -4.667 -70.276 
  8.248  10.216 -69.593 
  3.571   4.435 -73.023 
 -5.753   8.470 -64.723 
  7.399   8.886 -70.311 
  4.623   3.113 -66.910 
 -6.747   6.024 -69.109 
  4.060  10.183 -67.499 
  7.659   1.753 -70.521 
  0.422   1.789 -67.377 
 11.553  -1.690 -69.268 
 -6.432  -5.345 -69.338 
 -3.184  11.265 -70.903 
 -9.859   5.082 -62.605 
-12.514   1.192 -76.144 
 -6.018   1.116 -69.341 
 -2.311  -1.976 -71.109 
  1.099   7.341 -68.280 
-10.383   5.149 -71.874 
  7.545   1.267 -67.751 
 -4.038   8.053 -68.511 
 11.465  -5.361 -68.802 
 -9.338  -1.550 -70.126 
-11.028 -10.317 -69.513 
 -1.543 -10.252 -66.161 
  9.439   4.105 -69.635 
 -7.652  -9.993 -70.002 
  0.633   3.614 -69.612 
 -9.229  -3.607 -68.739 
 -0.983   6.205 -72.379 
 -2.380  12.138 -67.336 
-11.294   5.724 -68.105 
 -6.597  -1.207 -65.549 
  1.370   2.467 -66.694 
 -3.585  -9.006 -68.635 
  3.505  -7.680 -69.632 
  2.248   9.560 -68.161 
 11.951  10.802 -69.315 
 -2.364 -11.619 -72.536 
  3.187   9.973 -73.754 
 -7.557   6.089 -68.131 
 -6.336  -9.107 -66.530 
  6.027   9.932 -71.091 
  4.281 -12.367 -73.856 
 -4.845   7.579 -72.311 
  0.865  -9.159 -73.107 
  6.262  -3.073 -68.932 
 -6.003   5.682 -64.191 
  2.640   4.317 -71.549 
  3.697   8.745 -67.487 
  2.242   4.390 -62.196 
  3.659   8.004 -74.187 
  5.880   4.158 -66.230 
  1.420 -11.297 -73.267 
 -4.653  11.538 -72.590 
  1.709 -12.187 -64.500 
 -8.064  12.041 -69.255 
 -6.714   8.308 -61.921 
  7.800  -5.156 -68.820 
  4.790   0.195 -63.305 
 -8.056  -5.658 -65.514 
  9.411   2.774 -65.919 
-13.259  -1.579 -73.116 
-14.127  10.290 -73.232 
 -3.265  -0.754 -72.200 
 -4.719   9.040 -65.596 
 -4.067  -5.596 -72.953 
  0.080  -8.697 -63.901 
-10.916  -7.277 -69.454 
  8.098  -6.623 -72.539 
 -1.134   8.503 -62.063 
 -1.216   7.040 -63.061 
-10.848   8.017 -63.057 
  9.128  10.177 -66.797 
 -7.524  -7.886 -69.962 
 -5.081  -7.758 -68.861 
-12.546  -6.140 -69.941 
 -0.041  -7.815 -71.829 
  5.859   8.419 -68.653 
-12.246   7.161 -71.011 
 -5.588  -1.252 -69.912 
-12.523   2.169 -69.697 
 -6.402 -10.147 -69.781 
  1.822   2.288 -68.468 
-13.954  12.147 -73.023 
-14.951   4.130 -69.536 
 -5.107   5.710 -73.061 
-10.788   1.822 -69.370 
 -7.987  10.198 -63.814 
  0.338  -6.285 -70.652 
 -7.309  -6.060 -73.418 
  9.814  -2.906 -67.612 
-13.547   1.814 -70.151 
  7.925   2.269 -67.349 
  9.796   5.521 -70.947 
 -9.525   0.901 -64.076 
 12.125   8.713 -68.198 
 10.760   2.504 -62.592 
 -7.450   0.712 -64.476 
-12.827  10.128 -65.539 
 13.152  -1.069 -65.102 
 -8.729  -7.599 -65.269 
 -6.042  -7.329 -67.102 
 15.140   9.048 -71.784 
  7.553  -7.369 -69.441 
 -0.629  -4.075 -63.025 
 -5.458  -4.310 -69.784 
  5.652  -4.750 -63.468 
 -6.778  -3.072 -67.260 
  9.869 -10.613 -70.689 
 -1.550  -2.910 -64.529 
 -5.768   4.057 -74.629 
  7.415  12.506 -68.974 
  9.317   6.433 -68.507 
  5.421  -8.715 -75.638 
-11.647  -8.704 -69.123 
 -8.950  11.901 -73.792 
 -4.922   3.383 -60.238 
 -8.236 -11.899 -66.719 
 -8.573   4.918 -64.314 
-10.572   6.755 -74.664 
  2.335  -7.623 -72.204 
  5.825  -1.329 -68.370 
 -3.604   1.180 -72.004 
-11.318   5.491 -63.522 
 -1.578   3.757 -76.785 
 -6.856   9.162 -75.687 
  5.183  -4.227 -69.459 
-10.746  -9.245 -68.186 
 10.758  -7.069 -66.662 
 -2.500 -11.748 -67.676 
 -3.030  -2.966 -70.902 
 -5.140  -3.237 -66.813 
 -7.165   7.150 -64.613 
  1.305   7.067 -76.216 
  9.830  -8.247 -70.207 
  7.208 -12.079 -67.065 
  4.287  -0.281 -71.694 
  9.331   5.249 -66.078 
-12.627   4.724 -70.950 
 -6.502   5.580 -75.130 
 -7.679  -4.258 -69.636 
-13.889  -1.885 -70.720 
  8.894   8.683 -64.894 
 10.002  11.570 -69.467 
 -2.568  -3.114 -73.938 
-11.692  -7.370 -69.150 
  2.637   8.093 -77.014 
-10.986   2.085 -72.116 
-15.903   3.891 -71.381 
 14.791   2.672 -71.074 
  5.205  -6.295 -63.945 
  3.662   7.677 -63.510 
  7.923  -1.710 -70.518 
 -5.676  -3.891 -73.252 
 14.883  -8.019 -70.745 
  0.738  10.479 -68.319 
 -1.045   1.430 -75.005 
 13.050  -7.852 -65.261 
 -7.507  12.832 -68.212 
  5.824 -12.145 -69.114 
-11.347  -1.661 -72.269 
 -9.313   7.725 -61.147 
 -1.025   5.312 -69.480 
  6.505   8.378 -68.964 
 -8.454   0.502 -64.469 
 -7.643   7.963 -66.030 
-12.604  -5.000 -68.913 
  4.079   2.157 -62.195 
 -9.384 -10.412 -69.975 
  7.750  -5.290 -70.171 
 13.712   1.431 -70.761 
-11.023   1.332 -62.724 
  2.405 -10.650 -76.005 
 13.605   2.814 -74.475 
 -4.967   4.180 -64.677 
 17.297   3.740 -68.614 
 12.736  -4.226 -71.538 
 13.471  -0.002 -67.492 
-15.775 -11.590 -72.791 
 11.468  -4.674 -69.666 
 -6.274  -1.386 -68.510 
 13.127  -5.324 -74.067 
 12.554  -6.959 -70.820 
  7.248   0.714 -61.598 
  2.643   8.779 -71.249 
 -8.538  -7.445 -67.849 
  9.930   1.220 -70.529 
-14.671  -2.066 -69.547 
 10.299  11.015 -66.493 
 12.887  -1.777 -70.112 
  0.578   9.166 -64.490 
 -0.875  -8.964 -62.694 
  0.494   6.643 -75.436 
 12.237   6.519 -67.736 
  1.769  11.486 -62.654 
  3.890  10.380 -72.517 
  8.910  -5.293 -72.322 
 15.346   8.875 -68.034 
 13.560   5.056 -73.257 
 12.168  -4.816 -69.895 
  7.886  -3.245 -70.639 
 10.826  -3.942 -69.461 
  3.892  -3.872 -69.084 
 12.083  -5.691 -69.448 
-12.560   5.271 -73.767 
  8.326 -12.083 -67.564 
  3.107  -1.596 -69.457 
-13.329  -9.780 -68.671 
-13.960   5.540 -68.413 
 -6.457  11.562 -65.879 
  3.790   7.398 -66.371 
  4.723 -10.570 -67.971 
 -9.497   8.332 -62.701 
-14.894  -8.424 -70.470 
 -1.573  -0.426 -67.086 
 14.224   8.660 -69.043 
  4.578  11.294 -61.938 
 -9.038   8.887 -73.631 
-10.195  10.817 -62.073 
 -3.438   9.424 -72.909 
  8.933  11.571 -68.279 
 15.197   7.425 -68.374 
-14.102  11.368 -67.388 
 11.372  -3.027 -68.635 
  4.608 -10.881 -64.029 
 -6.230   0.988 -72.960 
-15.262   2.952 -76.089 
  2.589  12.825 -65.757 
  4.770  -6.402 -71.939 
 11.978   7.236 -70.863 
 13.409  10.105 -65.468 
 -5.059   6.992 -71.910 
  1.085  -8.058 -65.433 
  4.523 -12.150 -72.309 
  7.212 -12.383 -72.988 
 10.854 -10.506 -72.179 
  3.978  -7.485 -66.328 
 12.951   0.688 -70.488 
-14.212  -4.980 -69.713 
 -7.034 -12.090 -66.313 
 13.368   8.860 -72.299 
 -1.537 -10.581 -76.730 
  8.841  -3.044 -62.737 
 -6.458  -3.311 -67.351 
  1.291   6.062 -68.349 
-10.137   0.128 -61.785 
 13.758   1.194 -68.562 
 10.653   3.422 -65.715 
  7.101  -4.463 -74.043 
-11.349  -4.313 -69.285 
  8.594   2.587 -70.549 
 -7.700  10.448 -72.953 
-11.588   8.899 -71.688 
 15.238 -11.841 -71.446 
 12.134  11.855 -67.050 
 -6.029  -5.934 -73.059 
 12.518 -11.967 -68.974 
 12.539   4.657 -64.203 
 -5.594 -10.367 -59.569 
  6.678 -11.747 -75.348 
  9.248  -0.661 -73.564 
  9.474  -8.529 -70.581 
  9.395  -4.585 -72.130 
-11.845   0.579 -72.452 
  5.736  -6.880 -67.304 
  3.858   5.322 -74.468 
 14.815  -3.303 -74.643 
 16.368  -6.310 -70.522 
  0.412   5.901 -73.600 
  3.673  -3.880 -61.561 
 10.056 -11.449 -63.535 
-10.180   3.184 -74.334 
-10.489   1.248 -67.464 
 12.053   6.085 -62.981 
  4.832   1.547 -73.562 
-13.686  -3.658 -72.299 
  8.661 -12.520 -66.725 
  4.074  -1.127 -65.102 
 -9.819  -2.825 -73.263 
 13.303  -5.986 -68.044 
-15.745   2.825 -73.406 
 -5.785   5.401 -61.871 
 -6.513   5.188 -73.127 
  8.003  11.803 -70.205 
  6.243   9.128 -70.887 
 10.284  11.962 -69.594 
 -2.323  -1.980 -74.626 
 -3.629  10.607 -71.923 
  2.172 -11.846 -70.334 
  9.793  -9.493 -66.647 
  7.239  -4.957 -69.933 
 15.879  12.893 -68.576 
  5.550  -0.531 -64.244 
-15.216  -5.740 -76.002 
 13.831  -7.845 -73.224 
 -5.630  -8.971 -67.172 
 -2.386  -1.197 -68.008 
-13.273  -0.860 -76.821 
  3.688  -1.454 -65.347 
 -1.171 -11.240 -73.344 
 -3.743  -4.937 -68.735 
  2.118  11.727 -69.984 
 -2.192  -7.000 -73.524 
 -5.203  -8.013 -73.438 
 -6.815  -2.441 -70.832 
 -4.188   0.077 -71.382 
 -5.090   6.198 -71.612 
 -1.047  -0.798 -70.283 
 -3.566  10.448 -73.817 
 -4.144  -6.652 -72.423 
 -1.712   4.319 -66.721 
 -5.322   3.825 -73.029 
 -3.818  -4.831 -77.611 
-10.737   7.885 -75.178 
 -9.442  -4.655 -68.421 
  8.430   2.276 -68.294 
  2.387   4.532 -70.218 
  5.827  -2.303 -77.335 
 -2.108  -7.572 -68.795 
  4.259   1.750 -73.129 
  2.253 -10.117 -70.113 
 10.082   8.024 -73.069 
 11.813   1.914 -73.384 
  0.630  -6.122 -76.524 
  4.832  -5.104 -72.210 
 16.425  -2.837 -73.536 
 -6.022  -8.380 -73.016 
 -5.465   4.343 -66.894 
 -8.064  -2.036 -62.928 
  8.135  -8.215 -71.619 
  8.177  11.006 -62.352 
-12.087   3.859 -68.659 
 -7.447  -0.960 -74.930 
 14.892   5.338 -71.362 
  6.114  -8.841 -63.525 
  8.267   7.305 -67.036 
  6.979  -8.506 -61.693 
 -7.111  11.029 -70.822 
  4.003  -9.642 -64.034 
 17.652  -3.297 -69.495 
 -2.085   3.232 -59.261 
 -1.490  -1.892 -66.481 
 10.878 -13.036 -65.470 
 -8.800   4.324 -67.650 
 -5.011   4.003 -61.809 
-11.131  -9.475 -65.554 
 16.017   0.594 -64.337 
 14.977 -10.347 -68.462 
 -6.024   0.494 -64.025 
  4.165   7.514 -73.597 
-10.919   9.723 -61.814 
  7.643  -5.282 -64.066 
 -7.186  -2.808 -59.768 
-10.813  -6.025 -65.930 
-14.259 -10.133 -69.797 
 13.507  -7.266 -68.805 
  8.623   5.714 -69.069 
 -9.277   1.453 -68.813 
  8.637  10.471 -65.336 
 -6.528   6.731 -65.449 
 -7.513 -11.914 -63.764 
 -7.658  -1.118 -68.516 
-10.296   2.046 -63.702 
-10.385 -12.702 -68.539 
  4.561   1.905 -69.244 
 -5.857  -5.739 -56.365 
  5.707  -8.078 -62.695 
 -3.958  -5.964 -71.132 
 -3.765   8.800 -61.109 
 12.806  -5.036 -67.547 
 -3.660 -10.219 -60.496 
  8.375 -12.608 -74.295 
 17.881 -12.560 -67.956 
  0.853 -11.827 -64.794 
 -7.704  -3.890 -70.691 
  4.201 -12.784 -63.995 
  2.512  -5.078 -75.990 
-11.871  10.695 -64.362 
-10.676   8.316 -74.096 
  6.072  -7.891 -76.489 
  3.750   9.953 -63.025 
 -2.102  10.648 -70.760 
 -7.053   3.543 -64.322 
  3.748  -2.628 -76.094 
 -0.811  -5.569 -70.926 
-14.822   7.555 -69.713 
  3.409  -6.281 -58.581 
  7.016   4.459 -62.913 
-12.734  -5.691 -65.809 
 16.901   9.765 -66.835 
  4.946 -12.220 -66.573 
 15.064  -5.603 -73.959 
 12.028 -10.060 -65.697 
 16.140  -7.512 -72.854 
 -3.070   3.737 -68.685 
  9.598   3.299 -63.065 
 13.343   4.924 -69.942 
 -4.085   9.770 -60.280 
  8.073   8.512 -72.619 
 13.983   4.239 -71.229 
 -1.253  -4.956 -62.557 
 -4.819 -12.265 -68.423 
  8.009   6.290 -76.547 
  9.569 -11.615 -71.292 
 -6.486  -4.165 -66.825 
 16.639   2.652 -69.632 
 -7.445   7.140 -72.161 
-13.410   7.457 -67.498 
 13.876  11.015 -68.650 
 15.345   8.193 -72.573 
 13.286  -2.337 -63.026 
 16.858  11.444 -65.882 
 17.674  -0.313 -66.771 
 17.028   9.780 -73.653 
 16.383   1.667 -69.201 
  8.645  -0.836 -70.357 
  9.138   6.653 -71.928 
  2.892  -3.705 -68.950 
  7.427 -10.991 -69.657 
 14.803  10.043 -67.368 
 11.813  -9.462 -60.576 
  0.201   1.080 -61.316 
  1.281   1.320 -74.842 
-13.419  -7.729 -73.478 
 10.744 -12.558 -64.958 
 11.904  -3.883 -68.288 
 -8.846   4.301 -65.045 
 14.107 -12.488 -76.915 
  5.326 -10.128 -62.221 
-14.092  13.033 -68.031 
  9.615   9.797 -68.248 
  7.944  -3.233 -67.873 
  8.325  -6.723 -56.790 
 12.841  12.451 -63.368 
 10.656  -8.050 -73.131 
 11.915   0.092 -59.969 
-13.344 -11.813 -67.215 
 11.997  -1.159 -68.441 
 -9.929 -10.897 -68.218 
 -9.550  -8.404 -63.630 
-12.589  -6.501 -72.109 
  2.911 -11.598 -62.288 
 12.782  -7.000 -72.419 
 -7.705   3.757 -60.823 
  8.538   0.571 -63.174 
  4.388  -6.069 -77.765 
 17.679   9.806 -70.300 
 11.725   2.995 -64.167 
 15.518   2.112 -64.106 
 -2.063   5.924 -66.018 
-14.044   2.040 -77.963 
 -9.957  -3.831 -67.386 
-10.017  -0.569 -67.700 
 15.718  13.001 -64.593 
 -2.071  -8.230 -71.834 
 -1.319   8.489 -74.101 
 -8.337  -0.185 -64.917 
 -9.861   9.462 -72.451 
 15.974   3.053 -69.846 
  5.843  -2.601 -73.758 
 16.224  -1.970 -67.190 
 15.683   0.459 -72.264 
 -1.160 -11.988 -68.754 
 -7.902   3.048 -66.483 
  7.717 -13.047 -69.198 
  8.045   0.057 -70.488 
 11.559  -6.531 -68.429 
-10.173  -2.492 -75.663 
 -0.790   3.197 -71.185 
 17.222  -3.243 -75.165 
 -2.909  -1.127 -70.608 
  9.393   3.103 -72.088 
 14.402  -4.755 -71.952 
 17.007   2.929 -72.282 
  1.580 -10.848 -70.573 
 -8.880  -7.065 -68.749 
 10.620   2.585 -64.132 
 11.234   7.966 -68.307 
  5.992  11.375 -72.305 
  8.639  -0.065 -74.683 
 -4.649  -0.430 -68.269 
  5.706  12.139 -69.796 
 16.507  -8.248 -72.742 
  4.034   9.287 -60.053 
 16.851  -9.021 -65.623 
 12.102  -2.749 -66.480 
  8.064  -3.097 -74.841 
-14.172   4.512 -65.585 
-12.499  -1.123 -67.585 
 -0.524   6.880 -60.076 
 -9.421   6.458 -68.879 
 -8.180  -5.313 -61.889 
 14.163   3.508 -58.790 
-10.334  -1.434 -67.292 
-14.797  12.329 -67.520 

 VERTICES 517 1034 
1 0 
1 1 
1 2 
1 3 
1 4 
1 5 
1 6 
1 7 
1 8 
1 9 
1 10 
1 11 
1 12 
1 13 
1 14 
1 15 
1 16 
1 17 
1 18 
1 19 
1 20 
1 21 
1 22 
1 23 
1 24 
1 25 
1 26 
1 27 
1 28 
1 29 
1 30 
1 31 
1 32 
1 33 
1 34 
1 35 
1 36 
1 37 
1 38 
1 39 
1 40 
1 41 
1 42 
1 43 
1 44 
1 45 
1 46 
1 47 
1 48 
1 49 
1 50 
1 51 
1 52 
1 53 
1 54 
1 55 
1 56 
1 57 
1 58 
1 59 
1 60 
1 61 
1 62 
1 63 
1 64 
1 65 
1 66 
1 67 
1 68 
1 69 
1 70 
1 71 
1 72 
1 73 
1 74 
1 75 
1 76 
1 77 
1 78 
1 79 
1 80 
1 81 
1 82 
1 83 
1 84 
1 85 
1 86 
1 87 
1 88 
1 89 
1 90 
1 91 
1 92 
1 93 
1 94 
1 95 
1 96 
1 97 
1 98 
1 99 
1 100 
1 101 
1 102 
1 103 
1 104 
1 105 
1 106 
1 107 
1 108 
1 109 
1 110 
1 111 
1 112 
1 113 
1 114 
1 115 
1 116 
1 117 
1 118 
1 119 
1 120 
1 121 
1 122 
1 123 
1 124 
1 125 
1 126 
1 127 
1 128 
1 129 
1 130 
1 131 
1 132 
1 133 
1 134 
1 135 
1 136 
1 137 
1 138 
1 139 
1 140 
1 141 
1 142 
1 143 
1 144 
1 145 
1 146 
1 147 
1 148 
1 149 
1 150 
1 151 
1 152 
1 153 
1 154 
1 155 
1 156 
1 157 
1 158 
1 159 
1 160 
1 161 
1 162 
1 163 
1 164 
1 165 
1 166 
1 167 
1 168 
1 169 
1 170 
1 171 
1 172 
1 173 
1 174 
1 175 
1 176 
1 177 
1 178 
1 179 
1 180 
1 181 
1 182 
1 183 
1 184 
1 185 
1 186 
1 187 
1 188 
1 189 
1 190 
1 191 
1 192 
1 193 
1 194 
1 195 
1 196 
1 197 
1 198 
1 199 
1 200 
1 201 
1 202 
1 203 
1 204 
1 205 
1 206 
1 207 
1 208 
1 209 
1 210 
1 211 
1 212 
1 213 
1 214 
1 215 
1 216 
1 217 
1 218 
1 219 
1 220 
1 221 
1 222 
1 223 
1 224 
1 225 
1 226 
1 227 
1 228 
1 229 
1 230 
1 231 
1 232 
1 233 
1 234 
1 235 
1 236 
1 237 
1 238 
1 239 
1 240 
1 241 
1 242 
1 243 
1 244 
1 245 
1 246 
1 247 
1 248 
1 249 
1 250 
1 251 
1 252 
1 253 
1 254 
1 255 
1 256 
1 257 
1 258 
1 259 
1 260 
1 261 
1 262 
1 263 
1 264 
1 265 
1 266 
1 267 
1 268 
1 269 
1 270 
1 271 
1 272 
1 273 
1 274 
1 275 
1 276 
1 277 
1 278 
1 279 
1 280 
1 281 
1 282 
1 283 
1 284 
1 285 
1 286 
1 287 
1 288 
1 289 
1 290 
1 291 
1 292 
1 293 
1 294 
1 295 
1 296 
1 297 
1 298 
1 299 
1 300 
1 301 
1 302 
1 303 
1 304 
1 305 
1 306 
1 307 
1 308 
1 309 
1 310 
1 311 
1 312 
1 313 
1 314 
1 315 
1 316 
1 317 
1 318 
1 319 
1 320 
1 321 
1 322 
1 323 
1 324 
1 325 
1 326 
1 327 
1 328 
1 329 
1 330 
1 331 
1 332 
1 333 
1 334 
1 335 
1 336 
1 337 
1 338 
1 339 
1 340 
1 341 
1 342 
1 343 
1 344 
1 345 
1 346 
1 347 
1 348 
1 349 
1 350 
1 351 
1 352 
1 353 
1 354 
1 355 
1 356 
1 357 
1 358 
1 359 
1 360 
1 361 
1 362 
1 363 
1 364 
1 365 
1 366 
1 367 
1 368 
1 369 
1 370 
1 371 
1 372 
1 373 
1 374 
1 375 
1 376 
1 377 
1 378 
1 379 
1 380 
1 381 
1 382 
1 383 
1 384 
1 385 
1 386 
1 387 
1 388 
1 389 
1 390 
1 391 
1 392 
1 393 
1 394 
1 395 
1 396 
1 397 
1 398 
1 399 
1 400 
1 401 
1 402 
1 403 
1 404 
1 405 
1 406 
1 407 
1 408 
1 409 
1 410 
1 411 
1 412 
1 413 
1 414 
1 415 
1 416 
1 417 
1 418 
1 419 
1 420 
1 421 
1 422 
1 423 
1 424 
1 425 
1 426 
1 427 
1 428 
1 429 
1 430 
1 431 
1 432 
1 433 
1 434 
1 435 
1 436 
1 437 
1 438 
1 439 
1 440 
1 441 
1 442 
1 443 
1 444 
1 445 
1 446 
1 447 
1 448 
1 449 
1 450 
1 451 
1 452 
1 453 
1 454 
1 455 
1 456 
1 457 
1 458 
1 459 
1 460 
1 461 
1 462 
1 463 
1 464 
1 465 
1 466 
1 467 
1 468 
1 469 
1 470 
1 471 
1 472 
1 473 
1 474 
1 475 
1 476 
1 477 
1 478 
1 479 
1 480 
1 481 
1 482 
1 483 
1 484 
1 485 
1 486 
1 487 
1 488 
1 489 
1 490 
1 491 
1 492 
1 493 
1 494 
1 495 
1 496 
1 497 
1 498 
1 499 
1 500 
1 501 
1 502 
1 503 
1 504 
1 505 
1 506 
1 507 
1 508 
1 509 
1 510 
1 511 
1 512 
1 513 
1 514 
1 515 
1 516 
POINT_DATA 517 
SCALARS MeanU double 1 
LOOKUP_TABLE default
0.10358 
0.12808 
0.08685 
0.10714 
0.10939 
0.09031 
0.08298 
0.13973 
0.10559 
0.08400 
0.10325 
0.16487 
0.08871 
0.07796 
0.12585 
0.03168 
0.07673 
0.06514 
0.16203 
0.13835 
0.07054 
0.09350 
0.08597 
0.11354 
0.18878 
0.11176 
0.09061 
0.11424 
0.09613 
0.09317 
0.13454 
0.05687 
0.07779 
0.06259 
0.14170 
0.03174 
0.05353 
0.08754 
0.11532 
0.05518 
0.08308 
0.12739 
0.06933 
0.07173 
0.15544 
0.18390 
0.10591 
0.16574 
0.09054 
0.08047 
0.12594 
0.14222 
0.06282 
0.16465 
0.14800 
0.17612 
0.08047 
0.07177 
0.06398 
0.14483 
0.07993 
0.12675 
0.19981 
0.10375 
0.01268 
0.08893 
0.08407 
0.10145 
0.15418 
0.10438 
0.11271 
0.14830 
0.07597 
0.07104 
0.08398 
0.08493 
0.13486 
0.06193 
0.17276 
0.08724 
0.18363 
0.15735 
0.07725 
0.07479 
0.05707 
0.07310 
0.16906 
0.05815 
0.15390 
0.12576 
0.04925 
0.09657 
0.10661 
0.09290 
0.11029 
0.14707 
0.19826 
0.09556 
0.07284 
0.10814 
0.05429 
0.07479 
0.05274 
0.06418 
0.06822 
0.04989 
0.06762 
0.05598 
0.04489 
0.16160 
0.08779 
0.13613 
0.08816 
0.02249 
0.09335 
0.05728 
0.08429 
0.11219 
0.10283 
0.07527 
0.01635 
0.12696 
0.09200 
0.12884 
0.13780 
0.01901 
0.20144 
0.09043 
0.11155 
0.17145 
0.06427 
0.17935 
0.06537 
0.06736 
0.12483 
0.06598 
0.13661 
0.11105 
0.10845 
0.15421 
0.12403 
0.04776 
0.06586 
0.14781 
0.07064 
0.09812 
0.10606 
0.06427 
0.14919 
0.14129 
0.08082 
0.15470 
0.08059 
0.15686 
0.12110 
0.06043 
0.07272 
0.07161 
0.12162 
0.12944 
0.05344 
0.03070 
0.08640 
0.04778 
0.05681 
0.11757 
0.04415 
0.09577 
0.09426 
0.10857 
0.08461 
0.06839 
0.09267 
0.11240 
0.12558 
0.09006 
0.06981 
0.03929 
0.08583 
0.15143 
0.12469 
0.02420 
0.07278 
0.15546 
0.08739 
0.12181 
0.07092 
0.11596 
0.12158 
0.16028 
0.14232 
0.02080 
0.12493 
0.18045 
0.05951 
0.11880 
0.15725 
0.08608 
0.02885 
0.11790 
0.13823 
0.03459 
0.05029 
0.07156 
0.09884 
0.15523 
0.16346 
0.12108 
0.09367 
0.02958 
0.04435 
0.03663 
0.09932 
0.20333 
0.09912 
0.13472 
0.18370 
0.12509 
0.07231 
0.15191 
0.07664 
0.04269 
0.10108 
0.03219 
0.14062 
0.07653 
0.04279 
0.05435 
0.18441 
0.11722 
0.04337 
0.13254 
0.15237 
0.11816 
0.11024 
0.06330 
0.14124 
0.13827 
0.09173 
0.02815 
0.11817 
0.11367 
0.07385 
0.13529 
0.05452 
0.09920 
0.11113 
0.02391 
0.06649 
0.06648 
0.08661 
0.10943 
0.11268 
0.07484 
0.22335 
0.02745 
0.03643 
0.06151 
0.23268 
0.07654 
0.13376 
0.10689 
0.11761 
0.07816 
0.17229 
0.14834 
0.06818 
0.10669 
0.06298 
0.11969 
0.05185 
0.06981 
0.15199 
0.03163 
0.04836 
0.12263 
0.07438 
0.11738 
0.08873 
0.08497 
0.10332 
0.04885 
0.10636 
0.09060 
0.06763 
0.03484 
0.23531 
0.13975 
0.05968 
0.12972 
0.13208 
0.20246 
0.19068 
0.02339 
0.12986 
0.15626 
0.09618 
0.07766 
0.06428 
0.17735 
0.08209 
0.09943 
0.07357 
0.12072 
0.04886 
0.10220 
0.12751 
0.12963 
0.07295 
0.13786 
0.05590 
0.08377 
0.06674 
0.06268 
0.13635 
0.12958 
0.04996 
0.16053 
0.16554 
0.05887 
0.17035 
0.11681 
0.08594 
0.03193 
0.04650 
0.03007 
0.02948 
0.10012 
0.07984 
0.13323 
0.07983 
0.09221 
0.11944 
0.12703 
0.06950 
0.07307 
0.06449 
0.08655 
0.12430 
0.07146 
0.16009 
0.08815 
0.08260 
0.12324 
0.08479 
0.02641 
0.10835 
0.03883 
0.07113 
0.14356 
0.13423 
0.03921 
0.14072 
0.04562 
0.05556 
0.10045 
0.04262 
0.12399 
0.09723 
0.08568 
0.10714 
0.13085 
0.09585 
0.19341 
0.07397 
0.08957 
0.08603 
0.09861 
0.09668 
0.05801 
0.19740 
0.02906 
0.16618 
0.10292 
0.14029 
0.12930 
0.13981 
0.09420 
0.11510 
0.08041 
0.08503 
0.15525 
0.15182 
0.08785 
0.13206 
0.16781 
0.08672 
0.17691 
0.12224 
0.12212 
0.17037 
0.13407 
0.09768 
0.04226 
0.07400 
0.17051 
0.10006 
0.08192 
0.04392 
0.06297 
0.00612 
0.08541 
0.12079 
0.05448 
0.12964 
0.07860 
0.10054 
0.10835 
0.25473 
0.11336 
0.15472 
0.14185 
0.16503 
0.11481 
0.11957 
0.15023 
0.14622 
0.15425 
0.16938 
0.17340 
0.11699 
0.10594 
0.22555 
0.09087 
0.14366 
0.07109 
0.22823 
0.09781 
0.27889 
0.19107 
0.14255 
0.10368 
0.08668 
0.11148 
0.10057 
0.09415 
0.13029 
0.10055 
0.09445 
0.17697 
0.05307 
0.07015 
0.16349 
0.17602 
0.13650 
0.15087 
0.11116 
0.11703 
0.10704 
0.10581 
0.04924 
0.08178 
0.06097 
0.12392 
0.24633 
0.03643 
0.05745 
0.07686 
0.13932 
0.11408 
0.11162 
0.18335 
0.17154 
0.20593 
0.02417 
0.10770 
0.13060 
0.03998 
0.04451 
0.05222 
0.07723 
0.10651 
0.06083 
0.24011 
0.14566 
0.03140 
0.05921 
0.05173 
0.11189 
0.06077 
0.14103 
0.10758 
0.12329 
0.05984 
0.14054 
0.11505 
0.14120 
0.09675 
0.12373 
0.08642 
0.11142 
0.09942 
0.10224 
0.08945 
0.07103 
0.11834 
0.08002 
0.03396 
0.09411 
0.18080 
0.13362 
0.12386 
0.09653 
0.02948 
0.12410 
0.14923 
0.10381 
0.19340 
0.06624 
0.05573 
0.05661 
0.11941 
0.04161 
0.11539 
0.10041 
0.18029 
0.06918 

 VECTORS Umean float 
0.02750 0.06650 -0.07450 
-0.10150 0.04550 -0.06350 
-0.00500 0.07350 0.04600 
-0.09650 0.01900 -0.04250 
0.05050 0.09050 0.03500 
-0.07100 0.04500 -0.03300 
0.01600 0.06050 -0.05450 
0.01550 0.06050 -0.12500 
-0.00150 0.06650 -0.08200 
-0.02700 -0.00250 -0.07950 
-0.04150 0.06300 -0.07050 
0.02750 0.08750 -0.13700 
-0.01250 0.05850 -0.06550 
-0.02550 0.07350 0.00500 
-0.02850 0.11300 -0.04750 
-0.00750 0.02100 -0.02250 
-0.02250 -0.03400 -0.06500 
0.01450 0.06300 -0.00800 
0.05950 0.11700 -0.09500 
-0.01850 0.12400 -0.05850 
-0.05200 -0.04750 0.00400 
0.00550 0.08150 0.04550 
-0.02050 -0.05700 -0.06100 
-0.06050 0.01050 -0.09550 
0.02750 0.18450 -0.02900 
-0.05650 -0.01650 -0.09500 
0.01550 0.06700 -0.05900 
-0.01900 0.08450 -0.07450 
-0.06000 0.07450 -0.00950 
-0.05950 0.03600 -0.06200 
-0.00050 0.11550 -0.06900 
0.00100 0.05200 -0.02300 
0.01350 0.06050 0.04700 
-0.01150 0.04400 -0.04300 
0.04700 0.12250 -0.05350 
-0.02050 0.00900 -0.02250 
0.01600 0.04700 0.02000 
0.05750 0.06450 -0.01400 
-0.08050 0.07750 -0.02850 
-0.04850 0.00650 -0.02550 
0.03400 0.06500 -0.03900 
-0.01700 0.12200 -0.03250 
0.03000 0.06000 0.01750 
-0.00750 0.06350 -0.03250 
0.02250 0.10800 0.10950 
0.01350 0.17150 -0.06500 
-0.06900 -0.04200 -0.06850 
0.04200 0.15500 -0.04100 
0.00450 0.07900 -0.04400 
-0.00900 0.05050 0.06200 
-0.06900 0.04950 -0.09300 
-0.05550 0.12500 -0.03900 
-0.04750 -0.00950 -0.04000 
0.06300 0.14850 0.03300 
0.01700 0.13400 -0.06050 
0.10950 0.12650 0.05500 
-0.00700 0.07350 -0.03200 
-0.05450 0.03700 -0.02850 
-0.02450 -0.00350 -0.05900 
0.11100 0.08400 0.04000 
-0.06800 -0.02600 -0.03300 
0.02300 0.07950 -0.09600 
0.04800 0.18600 0.05500 
-0.08950 0.00700 -0.05200 
0.01050 0.00450 0.00550 
-0.04500 0.06800 -0.03550 
0.01750 0.06450 -0.05100 
0.03400 0.06400 -0.07100 
-0.00300 0.14400 -0.05500 
-0.05450 0.02800 -0.08450 
-0.01950 0.11100 0.00150 
0.01400 0.12000 -0.08600 
0.03300 -0.03100 -0.06100 
0.04650 0.04900 -0.02200 
-0.01350 0.08250 0.00800 
-0.03450 0.06250 -0.04600 
0.08800 0.09100 -0.04650 
-0.05300 0.01250 -0.02950 
0.02100 0.16950 -0.02600 
0.05850 0.04700 -0.04450 
0.09100 0.15950 -0.00050 
0.08500 0.09850 0.08850 
0.00100 0.07500 -0.01850 
-0.02850 0.02850 -0.06300 
-0.05650 -0.00050 0.00800 
0.03100 0.05650 -0.03450 
0.03600 0.16450 -0.01500 
-0.02900 0.04950 0.00950 
0.05200 0.13500 -0.05250 
0.04050 0.11300 -0.03750 
-0.02100 0.04400 0.00700 
-0.00850 0.08900 -0.03650 
-0.05300 0.09250 -0.00050 
0.02150 0.08200 -0.03800 
-0.03550 0.10100 -0.02650 
0.04400 0.08650 0.11050 
0.07800 0.09750 0.15400 
-0.00000 0.08950 0.03350 
-0.06100 0.03600 -0.01700 
-0.05450 -0.02500 -0.09000 
-0.04650 0.02800 0.00100 
0.03950 0.05700 -0.02800 
-0.01600 -0.02600 -0.04300 
0.01650 0.05050 -0.03600 
-0.01400 0.06150 -0.02600 
-0.04850 -0.00400 0.01100 
-0.04150 -0.03750 -0.03800 
0.00350 0.03900 -0.04000 
-0.00200 -0.01700 -0.04150 
0.09900 0.10650 -0.07050 
-0.01200 0.08650 0.00900 
0.04450 0.11700 0.05350 
0.05900 0.05300 -0.03850 
-0.00100 0.00800 -0.02100 
0.00150 0.06550 -0.06650 
-0.03250 0.04000 -0.02500 
0.02700 0.07050 -0.03750 
-0.05150 0.01150 -0.09900 
0.03500 0.09500 -0.01800 
0.03450 0.06300 0.02250 
-0.01200 0.00650 0.00900 
0.03700 0.11450 -0.04050 
0.02850 0.08650 0.01300 
0.06700 0.10400 0.03600 
-0.02750 0.02600 -0.13250 
-0.00000 -0.01550 -0.01100 
0.10300 0.17100 0.02700 
0.00400 0.08100 0.04000 
0.01600 0.10900 -0.01750 
-0.00800 0.16950 -0.02450 
0.01650 0.05750 -0.02350 
0.09400 0.14250 -0.05500 
-0.00400 0.01500 -0.06350 
-0.00500 -0.00950 -0.06650 
-0.06650 0.06900 -0.08000 
-0.01900 0.06150 -0.01450 
0.04350 0.12950 0.00050 
-0.08250 -0.01850 -0.07200 
-0.01300 0.10700 -0.01200 
-0.06300 0.14000 -0.01450 
0.04400 0.09500 -0.06650 
-0.04750 -0.00400 0.00300 
-0.05000 0.04100 0.01250 
0.08150 0.10800 -0.05950 
0.01500 0.06650 -0.01850 
0.00600 0.09700 -0.01350 
-0.01050 0.04700 -0.09450 
-0.00950 0.02100 -0.06000 
0.05000 0.07400 -0.11950 
0.07850 0.11700 0.01050 
0.00400 0.07950 -0.01400 
0.09950 0.10000 -0.06350 
0.04000 0.06950 -0.00800 
0.04700 0.14550 -0.03500 
0.01650 0.11200 -0.04300 
-0.02900 0.01450 -0.05100 
0.02400 0.03750 -0.05750 
0.06800 -0.00650 -0.02150 
0.05950 0.07450 -0.07550 
0.00700 0.11600 -0.05700 
-0.03900 0.03500 -0.01050 
0.01150 -0.01450 0.02450 
-0.01600 0.05150 0.06750 
-0.03450 0.03250 0.00600 
-0.03500 0.03450 -0.02850 
-0.07600 -0.02550 -0.08600 
-0.04300 0.00800 -0.00600 
0.02250 0.09250 -0.01050 
0.01800 0.00200 -0.09250 
-0.02350 -0.02050 -0.10400 
-0.06800 -0.04850 -0.01350 
-0.02150 0.03750 -0.05300 
0.00150 0.08600 -0.03450 
-0.03750 0.08900 0.05750 
0.05300 0.04850 -0.10300 
-0.01800 0.08100 0.03500 
0.00800 0.05700 -0.03950 
-0.02650 0.02900 -0.00050 
-0.05050 0.00750 -0.06900 
0.00600 0.14800 -0.03150 
-0.04350 0.11050 -0.03800 
0.01300 -0.01050 -0.01750 
-0.01100 -0.02200 -0.06850 
-0.03350 0.11800 -0.09550 
-0.00100 0.06400 -0.05950 
-0.03450 0.02550 -0.11400 
0.02500 0.06600 -0.00700 
0.01550 0.09950 -0.05750 
0.02600 0.10250 0.06000 
0.08050 0.13700 -0.02100 
0.04350 0.12900 -0.04150 
0.00350 0.00450 -0.02000 
0.02150 0.09600 -0.07700 
0.02550 0.14700 -0.10150 
0.02400 0.05300 0.01250 
-0.02550 0.05800 -0.10050 
0.00750 0.14750 -0.05400 
-0.03300 0.00100 -0.07950 
0.01250 0.02050 -0.01600 
0.05300 0.10350 -0.01950 
-0.10000 0.09250 -0.02350 
-0.01900 0.02500 -0.01450 
0.02300 0.04400 -0.00800 
0.06950 0.00900 -0.01450 
0.07150 0.03900 -0.05600 
0.03450 0.14650 -0.03800 
-0.14250 -0.03800 -0.07050 
0.06200 0.07100 0.07600 
-0.00600 0.05900 -0.07250 
-0.02900 -0.00200 0.00550 
-0.01850 -0.02850 -0.02850 
-0.02100 0.00100 -0.03000 
-0.04100 0.05850 -0.06900 
0.06250 0.14100 -0.13250 
-0.04500 0.00750 -0.08800 
-0.02100 0.00450 -0.13300 
-0.06150 0.16200 0.06100 
-0.09250 0.03050 -0.07850 
0.00250 0.03450 -0.06350 
-0.02150 0.03800 -0.14550 
-0.01800 0.02550 -0.07000 
-0.00800 0.04150 -0.00600 
0.04050 0.04750 -0.07950 
-0.00600 0.02600 -0.01800 
0.07450 0.08050 -0.08800 
0.04300 0.06150 -0.01500 
-0.03850 0.00650 -0.01750 
0.04300 0.00700 -0.03250 
0.10650 0.05900 -0.13850 
0.00400 0.11400 0.02700 
-0.03600 -0.02300 0.00750 
-0.02950 0.12900 -0.00750 
0.00350 0.13800 -0.06450 
0.11200 0.03750 0.00350 
0.02350 0.10000 -0.04000 
0.02950 0.02200 -0.05150 
0.04600 0.12500 -0.04700 
-0.05550 0.01700 -0.12550 
-0.05650 0.07150 -0.01050 
-0.01000 -0.00650 -0.02550 
0.03550 0.10150 -0.04900 
-0.07300 0.04350 -0.07550 
0.04450 -0.03200 -0.04950 
-0.02500 0.05050 -0.12300 
-0.05150 0.01450 0.01050 
0.03500 0.08200 -0.04350 
0.07200 0.02100 -0.08200 
-0.01350 0.01950 0.00300 
-0.05550 -0.02300 0.02850 
-0.04500 0.04850 -0.00650 
0.01100 0.05250 -0.06800 
-0.06300 -0.03800 -0.08100 
-0.01150 -0.00450 -0.11200 
-0.03250 0.05850 -0.03350 
0.12050 0.16850 -0.08350 
0.02650 -0.00150 -0.00700 
0.02700 -0.01850 0.01600 
-0.04300 0.03350 -0.02850 
0.18950 0.11750 0.06650 
-0.00300 0.05700 -0.05100 
0.01900 0.04900 -0.12300 
0.00900 0.09700 -0.04400 
-0.05250 0.04200 -0.09650 
0.07550 0.01300 0.01550 
0.09550 0.14200 0.02000 
0.03000 0.14450 -0.01500 
-0.02750 0.05550 -0.02850 
0.02050 0.09000 0.05350 
0.01800 0.02250 -0.05600 
0.00050 0.11150 -0.04350 
0.02400 0.02350 -0.03950 
0.03650 0.04700 0.03650 
-0.08700 0.01250 -0.12400 
-0.00300 0.02950 0.01100 
-0.02750 -0.01000 -0.03850 
0.03300 0.11750 -0.01200 
-0.02550 0.01100 -0.06900 
0.08300 0.04900 0.06700 
0.02050 0.08600 0.00750 
-0.05800 0.06200 0.00350 
0.02350 0.05900 -0.08150 
-0.01700 0.03900 -0.02400 
0.05250 -0.00050 -0.09250 
0.02200 0.04050 -0.07800 
0.02500 0.01700 -0.06050 
-0.01850 -0.01850 -0.02300 
0.18850 0.12250 -0.06950 
-0.03400 -0.02350 -0.13350 
-0.00300 0.05650 0.01900 
0.02500 0.08000 -0.09900 
-0.08000 0.00450 -0.10500 
0.08150 0.17500 -0.06100 
0.11650 0.13600 -0.06550 
0.00500 -0.00400 0.02250 
-0.00550 0.12950 0.00800 
0.01600 0.13750 -0.07250 
0.00100 -0.02450 -0.09300 
-0.07150 -0.00700 0.02950 
0.05900 0.01450 -0.02100 
0.09350 0.14950 -0.01900 
-0.06350 0.03000 -0.04250 
0.03100 0.06950 -0.06400 
-0.03000 -0.06650 0.00950 
-0.04900 0.10850 -0.02000 
0.02100 0.03450 -0.02750 
-0.08650 0.02150 -0.05000 
-0.08800 0.01800 -0.09050 
-0.07350 0.04000 -0.09900 
-0.00700 -0.07250 -0.00400 
-0.03200 0.07450 -0.11150 
0.00950 -0.00800 -0.05450 
0.02000 0.07600 0.02900 
0.02800 0.04000 -0.04550 
-0.04000 0.02700 -0.04000 
0.09300 0.07000 0.07100 
0.10200 0.06800 0.04200 
0.00600 0.03000 -0.03950 
0.07100 0.07400 0.12350 
0.10350 0.12200 -0.04250 
-0.02600 0.04000 -0.03450 
0.09550 0.13750 -0.03150 
0.01150 0.04300 0.10800 
0.03200 0.07900 -0.01100 
-0.02800 0.01450 -0.00500 
-0.02250 0.04000 -0.00750 
-0.02750 -0.00400 0.01150 
0.02450 0.01300 -0.01000 
0.06000 0.08000 0.00500 
-0.01000 0.05500 -0.05700 