# vtk DataFile Version 2.0 
Xm, Ym, Zm, Uvecs, timestep 10012 
ASCII 
 
DATASET POLYDATA POINTS 525 float 
 -4.916   3.748 -69.867 
 -5.442   1.232 -71.691 
  2.138   6.486 -70.843 
 -3.706  -9.640 -71.347 
-15.171  -3.602 -74.617 
  6.050   4.155 -70.403 
  3.736   8.599 -70.818 
 -9.628  -2.702 -74.875 
 -6.356  -4.209 -70.673 
  2.838   1.611 -71.135 
-11.968  10.261 -74.624 
 -1.753  -7.646 -72.010 
  2.226   4.960 -69.352 
  0.280   5.524 -68.193 
 -1.882   8.872 -69.960 
  6.899   4.782 -68.956 
  3.982  12.268 -72.216 
 -0.263   1.750 -72.638 
 -3.270  -1.494 -72.849 
  3.793   0.181 -69.343 
  6.843   9.890 -69.970 
 10.413  -1.652 -70.888 
 -3.059  -6.191 -69.243 
 -1.865   6.561 -69.862 
 -3.264   4.534 -69.701 
 -9.637   7.620 -72.339 
 12.872   3.147 -69.448 
  6.407  11.963 -71.787 
  4.119   4.230 -67.392 
  2.297   0.412 -74.472 
 -2.462   4.757 -69.977 
 -4.768  -2.896 -68.013 
 -7.245  12.973 -66.671 
  4.685   3.245 -68.862 
 -1.261  -0.663 -67.521 
 -4.332  10.587 -68.889 
  3.181  -5.410 -73.599 
 -1.743  11.700 -70.084 
-14.334  -4.652 -73.579 
  4.072   1.748 -70.960 
  5.771  11.331 -68.331 
  3.232  -9.471 -72.990 
 -0.384  -9.590 -67.782 
  1.642  11.500 -68.189 
  2.079  11.968 -68.125 
 -0.019   8.611 -65.990 
  5.197   9.700 -72.511 
  6.109 -10.554 -74.099 
 -4.790  12.268 -69.173 
-11.723   0.558 -66.472 
  0.699  -6.733 -71.379 
-11.063  -2.062 -71.629 
 -2.686  -3.763 -67.960 
 -3.944   2.276 -67.524 
  8.710  12.704 -68.096 
 13.629  -7.457 -74.350 
 11.578   1.668 -69.534 
  0.145  -0.015 -67.055 
 -7.689  11.826 -70.616 
  1.067   6.462 -74.742 
-12.397  -2.330 -67.755 
 -6.452   7.829 -70.465 
 -5.403  -3.580 -75.038 
 -3.705  10.336 -65.192 
 12.313  -6.908 -69.524 
  7.303   9.895 -74.678 
 -1.019  -0.291 -63.959 
  5.612   2.942 -72.243 
 11.448   6.065 -70.141 
 -2.687  -3.706 -75.788 
 13.679  -1.008 -67.865 
 -4.553   0.874 -65.117 
  7.067   0.087 -66.507 
 -9.739  -0.679 -64.415 
  0.435   1.946 -66.338 
 -7.874  -8.369 -71.475 
  5.892  -7.920 -67.460 
 -8.355   1.569 -63.537 
  5.218  -3.921 -71.072 
 -9.704 -11.256 -69.775 
  8.645 -11.133 -67.973 
 -6.417  -0.784 -70.738 
 -5.920   0.145 -65.748 
  0.817   4.033 -67.795 
-11.038  -3.434 -71.150 
 15.066   0.674 -70.852 
  6.290  -1.473 -66.090 
  8.839   8.848 -68.475 
 -9.556   1.553 -71.756 
  6.855  -6.873 -69.154 
 -4.162  -5.563 -65.781 
  4.275  -5.912 -66.266 
 -7.993   7.287 -66.216 
 14.607   4.197 -68.188 
 10.661   4.794 -65.323 
 10.171  -6.771 -69.100 
-10.768  -7.716 -71.043 
  9.422  -7.537 -67.858 
 -1.025  -2.971 -72.658 
 10.584  -5.072 -67.368 
  4.735   1.660 -65.595 
 -7.934   8.377 -73.454 
  3.737  -1.164 -77.299 
-12.618   6.290 -72.492 
 -3.051  -2.169 -66.258 
  7.578 -11.262 -69.041 
 13.159  -2.976 -64.563 
  0.836  10.389 -63.867 
  8.073  10.063 -65.688 
 -5.832  13.104 -67.412 
  1.412  -0.444 -65.985 
 -8.049  -3.026 -65.393 
 13.164   5.791 -67.391 
  5.709  11.943 -71.228 
 -5.677  -8.176 -71.628 
 -6.164  -8.325 -65.915 
 -5.640 -11.938 -74.742 
 -5.781   4.068 -70.716 
  5.470  -0.470 -72.889 
  0.266   7.239 -64.093 
 11.109   0.135 -72.404 
 -8.450 -11.227 -69.342 
  5.731   7.755 -66.016 
 -1.572   7.938 -61.643 
 10.037  -8.647 -68.448 
-10.750  -2.504 -63.162 
 -5.294   8.239 -71.101 
  5.473   3.202 -57.644 
-11.497  -8.709 -70.703 
  6.678  -5.531 -68.965 
 -4.396  -8.617 -71.868 
 -8.303   8.150 -75.352 
 -9.596  -5.120 -68.995 
  5.070 -11.250 -68.157 
-14.903 -10.056 -71.122 
 11.140  -4.639 -66.572 
 -9.727   3.397 -69.244 
 -0.238  -3.737 -64.739 
 -5.408  -5.960 -68.417 
-10.395   4.438 -62.108 
  3.840   5.640 -65.192 
-10.401  -5.829 -69.169 
 -7.431   9.722 -71.902 
  4.169  -8.101 -69.281 
 -3.210 -12.168 -68.460 
 11.662  -3.655 -69.553 
  6.763  -1.389 -71.194 
-12.622   1.901 -69.516 
 12.300   3.208 -68.717 
 -0.681   2.633 -66.602 
  2.710  10.214 -65.453 
 -9.332  10.500 -63.134 
  1.936  -4.249 -72.183 
  7.601  -5.254 -66.526 
-10.553   6.855 -71.013 
 13.720  -7.946 -69.910 
 14.604  -8.373 -70.678 
 10.661   9.408 -66.867 
 -2.031   9.702 -67.441 
 17.352   1.299 -69.320 
  1.178  -8.439 -66.224 
 11.742  -6.522 -68.883 
-10.555   3.327 -66.750 
  9.209  -0.587 -65.356 
  4.829  10.463 -66.573 
 -3.596 -11.875 -67.787 
-12.434  10.724 -66.222 
-11.030  10.248 -70.745 
-10.335   9.428 -64.435 
 -0.366   3.773 -63.109 
 17.127  -2.508 -74.050 
 15.442   2.338 -72.101 
 12.988  -2.575 -68.232 
 10.271   3.041 -72.317 
-14.968   5.579 -69.828 
 -4.223   9.677 -69.493 
 14.482  -0.378 -67.699 
-15.517  -3.037 -77.665 
-11.334   4.262 -67.804 
  0.455  -4.707 -68.877 
 -5.752  -0.795 -71.738 
 -0.769   8.708 -68.306 
 -5.514  10.603 -62.413 
  5.909  12.372 -66.676 
 -0.706  -5.759 -60.192 
 -1.116  -0.506 -72.275 
  3.047 -12.036 -69.880 
 13.865   8.394 -66.688 
  1.641  -2.691 -75.564 
  5.934  11.746 -65.956 
 16.059  -6.574 -73.794 
-12.011   5.575 -73.696 
  4.955   0.295 -67.270 
-12.152   7.198 -69.087 
  5.248   4.911 -63.043 
-12.340   9.345 -70.034 
-12.470  -6.852 -69.467 
  2.546  -4.568 -63.985 
  4.912  -1.943 -73.284 
  3.359 -11.102 -71.105 
 -8.976   7.859 -71.893 
 -4.093   2.383 -61.369 
  5.714   1.445 -72.427 
  1.700   7.607 -70.635 
 10.302   7.788 -73.264 
  1.071 -11.490 -68.252 
 -6.596   9.602 -75.737 
-11.937  -9.809 -74.324 
 13.429  12.319 -72.204 
 -8.954  -3.290 -65.531 
  6.028  12.433 -71.842 
-11.179  -0.952 -69.481 
  8.992  -0.942 -63.868 
 11.775  10.980 -72.635 
 -7.151  -8.514 -69.626 
 -3.592   2.287 -73.308 
 -2.970  -8.277 -75.333 
 10.076 -10.294 -67.764 
-11.247   3.598 -62.278 
  2.487   1.845 -67.372 
 -2.143   4.574 -68.300 
 10.351  -2.982 -63.901 
 13.193  -0.917 -74.189 
  1.150  -7.442 -62.425 
  7.740   2.212 -70.301 
 -6.119   6.513 -74.670 
  8.177  -1.489 -72.240 
-15.149  -5.237 -69.504 
  5.329  -6.359 -65.663 
 12.477  -0.190 -74.474 
 13.006   0.432 -68.124 
 10.423  -7.146 -69.481 
  8.211   6.164 -65.786 
 -8.383   0.861 -66.825 
 10.291   8.332 -64.488 
-15.528   9.027 -71.933 
  6.933 -10.567 -73.594 
  2.661  -3.455 -71.784 
  0.571   6.326 -74.227 
-11.682   0.746 -71.669 
  8.488   6.498 -74.095 
 -5.825   5.954 -65.306 
  3.470  13.055 -65.790 
-12.727   2.430 -63.734 
 16.791  -1.025 -69.713 
 -3.425   8.587 -69.821 
  4.113  -9.070 -64.821 
 -6.637 -12.209 -72.447 
-15.153   6.047 -72.142 
 17.000   7.788 -68.308 
 -1.222  10.290 -71.154 
  6.450  -1.897 -74.094 
 16.126  11.060 -69.965 
  3.565  -4.422 -63.251 
 -3.561 -11.575 -70.499 
-13.042 -10.358 -68.289 
-13.721   7.656 -68.942 
 -8.069  -2.279 -73.618 
 -5.721  -9.745 -73.184 
 -3.466  -0.690 -60.951 
 -3.352  10.785 -74.733 
  3.225   3.033 -61.541 
 16.704   0.049 -68.302 
 -0.531   7.566 -67.774 
  0.178  12.814 -66.753 
  1.392   0.354 -66.547 
 -6.280   0.268 -72.474 
 -0.568  -2.215 -57.272 
 16.573   7.258 -68.541 
 -4.444  13.211 -66.531 
  6.162  -5.450 -68.581 
-12.626   6.018 -70.653 
 12.218  -7.094 -71.011 
-13.620   6.174 -70.520 
  9.085 -10.028 -70.725 
 14.725 -12.734 -69.607 
  3.749  11.164 -71.802 
  3.767   2.261 -65.085 
 -7.275   1.474 -64.617 
  6.098   3.455 -62.016 
 11.296   7.482 -69.531 
  7.614   7.673 -61.483 
  8.773   9.974 -66.635 
-11.246  -7.514 -71.820 
 14.649  -0.438 -69.571 
  3.961   6.907 -71.340 
  4.071   9.594 -66.060 
 14.878 -10.409 -69.445 
-12.911   8.596 -63.179 
  9.476  -4.967 -73.939 
  8.320 -10.529 -68.665 
 -1.027   4.502 -64.808 
 -9.498  -6.702 -68.926 
 -5.098  -8.100 -71.030 
 12.817  10.327 -64.785 
 11.951  10.711 -67.677 
  6.123  11.176 -64.728 
  5.448  -4.343 -67.179 
  8.450   9.127 -65.865 
  8.204   2.225 -70.694 
  3.414   2.119 -62.891 
 14.994   8.200 -67.506 
 -2.024   8.151 -74.559 
 -7.100   9.097 -63.108 
  5.674  11.834 -60.736 
 -6.688 -12.497 -66.041 
  9.515  -8.317 -65.125 
 10.858  -4.659 -68.973 
 -0.578   8.492 -69.880 
 -9.588  -7.463 -73.166 
 13.303  11.241 -66.432 
  8.424   0.230 -75.097 
  0.000  10.307 -69.862 
 -2.716  -6.508 -61.240 
 14.200  11.901 -70.487 
-15.200   3.357 -70.995 
  4.477  10.960 -71.133 
-12.085   3.876 -65.828 
 13.145  -1.374 -68.832 
 -6.370   5.674 -75.012 
 -4.531  -3.058 -75.085 
-11.034  12.841 -67.536 
-14.707   2.912 -67.964 
  0.294   8.026 -74.529 
 -0.609   9.111 -67.194 
-15.841   2.256 -76.465 
 -7.313  11.524 -74.258 
 -4.117  10.576 -76.484 
 -8.600   5.094 -69.314 
 -8.319   1.994 -75.436 
 -6.736  10.942 -69.736 
  1.016  -5.699 -62.870 
-14.104  11.017 -69.657 
 -2.543   6.683 -72.186 
 -5.661  -2.160 -68.380 
 10.355  -0.809 -65.099 
  3.533  -2.176 -67.816 
-10.287  10.980 -72.019 
 11.440   5.843 -65.053 
  4.383   6.944 -76.054 
-14.559   4.472 -75.169 
 -7.210   5.457 -71.475 
  1.526 -12.610 -62.138 
 11.904   5.404 -72.346 
 -5.848  -2.392 -73.084 
 11.836   8.462 -71.486 
 -2.321  -4.681 -70.477 
  7.454   8.495 -66.765 
  1.825   6.514 -63.141 
  1.557  -7.659 -69.620 
 -8.582   4.356 -63.453 
 10.659  -6.008 -63.878 
 -6.803   8.879 -67.199 
 -8.814 -11.938 -70.023 
  9.649   4.437 -60.044 
  3.793   9.083 -70.636 
  4.447  -1.988 -73.639 
 -6.003  -2.117 -65.243 
 -6.612 -10.343 -65.053 
-15.111  -2.907 -71.873 
  4.463 -12.253 -66.126 
-12.128  11.002 -65.240 
 -6.405  10.955 -70.532 
 13.849 -10.119 -65.982 
 -0.939  10.270 -67.096 
-10.976   4.019 -69.934 
 -6.892  -4.351 -75.791 
  2.229  -8.361 -64.456 
 -3.989   0.251 -68.208 
  7.819   1.119 -65.154 
-12.192   5.684 -63.712 
-16.228  -2.928 -72.743 
-13.374  -4.409 -70.480 
 -9.495   4.753 -66.356 
 -6.444  -5.896 -68.075 
 -6.423  -1.181 -59.297 
 -4.444  -8.297 -73.733 
-10.529 -12.062 -66.510 
-12.861  -0.264 -68.475 
 -5.261 -10.714 -62.731 
  0.643   4.543 -62.867 
 -5.922   3.665 -71.879 
 -6.988  -7.002 -73.012 
  7.027  -3.778 -67.570 
  1.519  -6.269 -66.923 
 -6.829  -2.515 -62.821 
 -1.549  11.688 -75.922 
 14.343 -12.659 -66.189 
  4.639  -0.334 -65.661 
  6.687 -12.086 -64.561 
 -8.124 -12.326 -66.219 
-11.000   1.026 -62.697 
 -8.095 -10.416 -57.668 
  4.982  -2.561 -70.089 
-11.783   8.065 -64.704 
 -7.662  -6.561 -70.917 
  7.402 -10.324 -74.302 
 -1.868 -12.368 -71.601 
  9.412 -10.555 -62.718 
 14.305  12.555 -66.673 
  7.338   6.745 -61.200 
 12.264  -4.847 -71.768 
-12.099 -10.349 -71.442 
 16.959   4.291 -73.000 
 -5.210   4.624 -67.513 
 10.840  -2.258 -74.084 
  6.243  -5.061 -63.160 
 -6.691  11.236 -63.342 
 -8.500  -9.823 -67.377 
 12.973   6.021 -64.770 
 -7.992  -6.281 -57.438 
 -4.526   8.062 -67.725 
-10.876  -4.551 -63.441 
 -1.325   1.252 -64.182 
 -0.172 -11.028 -65.957 
 14.369  -8.149 -66.164 
 11.603  -6.279 -62.434 
 10.240  -1.308 -68.676 
 -4.555   4.043 -74.822 
 -2.950  -9.846 -65.776 
  1.194  -0.382 -57.959 
-12.023  -9.377 -66.073 
 11.965  -4.277 -63.490 
 -6.541  -3.604 -63.410 
 12.143  10.936 -75.265 
 -7.402  -0.962 -65.698 
 10.586   2.748 -66.031 
  9.706   1.640 -75.901 
  5.480   7.614 -59.823 
 12.244  -8.458 -74.230 
  2.297   9.332 -70.864 
  1.590   2.507 -68.726 
 -0.770 -12.526 -70.671 
 15.840   5.198 -73.101 
  7.480  -4.845 -69.753 
  0.243   9.977 -74.745 
 -7.232   9.527 -73.525 
  9.712  13.105 -64.052 
 -9.856  -3.284 -68.191 
 -4.512   2.149 -60.382 
 -3.356 -10.084 -61.679 
 14.245   5.719 -65.517 
 16.614  -9.836 -68.520 
 -5.009  -4.646 -71.276 
  4.192  -7.309 -74.470 
 13.059  -7.061 -65.139 
 17.142   0.221 -72.976 
 -6.063   9.605 -71.093 
 14.162   1.265 -70.440 
 -5.359   5.517 -72.258 
 -1.961  -0.546 -75.011 
 15.444  -5.351 -74.131 
 -8.039  -8.598 -58.160 
 18.301  -8.192 -68.636 
 -7.624  11.211 -65.209 
  8.931  11.166 -65.953 
 -2.164 -11.689 -74.317 
 10.570  -0.629 -62.676 
 -8.511  -9.204 -67.300 
-13.821  -8.329 -71.393 
  6.127 -10.011 -63.302 
  9.759   9.607 -67.554 
 -7.146  -9.884 -58.840 
 11.640  -6.060 -73.081 
 14.732  -4.958 -61.157 
  7.017 -13.094 -65.724 
 -9.020   3.684 -75.882 
-11.581  -1.653 -75.026 
 11.086   3.637 -67.225 
  9.840 -11.123 -66.224 
  1.154   3.636 -64.003 
  9.303   0.614 -57.809 
  8.782 -10.377 -72.441 
  0.563  -3.929 -64.868 
 -3.759   4.893 -66.918 
 12.076  -0.796 -74.319 
 14.711  11.311 -70.150 
 -0.998 -12.290 -68.038 
 10.378 -10.858 -71.488 
 12.085 -12.423 -62.288 
 13.099   4.107 -68.048 
-14.599  -3.188 -74.810 
 17.426  -4.998 -72.881 
 10.239   8.435 -68.884 
 14.383  -0.202 -72.756 
 12.352  -0.940 -56.649 
  2.580   3.901 -75.847 
 15.694   7.260 -64.128 
-15.000   4.827 -72.186 
-13.237   2.554 -72.308 
  9.769 -12.479 -67.455 
  4.741   0.214 -61.541 
 -2.747 -12.519 -72.970 
  7.138   2.127 -58.142 
  4.295  -7.603 -63.434 
 -7.897   6.973 -72.948 
  5.946   5.875 -61.204 
  4.960   1.270 -65.353 
  5.440  -2.747 -75.226 
 13.674   9.746 -72.377 
  2.436   2.824 -78.942 
  6.712   5.589 -68.166 
  5.416   1.159 -67.078 
 -8.105   4.219 -73.781 
 -8.933   1.867 -65.538 
-15.164  -8.797 -69.727 
 -1.777 -11.773 -77.675 
 -0.776   9.378 -69.377 
-12.753  -6.378 -66.182 
 -6.377   3.932 -72.713 
  2.000  -0.716 -74.994 
 13.734   6.875 -62.692 
  4.243 -12.124 -71.067 
  1.969  -8.214 -72.163 
-13.929   1.445 -76.313 
  3.707  11.889 -67.028 
-11.175  -3.656 -73.905 
-13.268   2.609 -77.730 
  2.874  -9.222 -68.189 
 -7.448  -2.999 -72.153 
 -4.499   5.662 -67.803 
 -1.912   5.344 -61.400 
 16.815  -4.101 -64.935 
 15.072  10.966 -68.831 
 -5.141   4.406 -73.233 

 VERTICES 525 1050 
1 0 
1 1 
1 2 
1 3 
1 4 
1 5 
1 6 
1 7 
1 8 
1 9 
1 10 
1 11 
1 12 
1 13 
1 14 
1 15 
1 16 
1 17 
1 18 
1 19 
1 20 
1 21 
1 22 
1 23 
1 24 
1 25 
1 26 
1 27 
1 28 
1 29 
1 30 
1 31 
1 32 
1 33 
1 34 
1 35 
1 36 
1 37 
1 38 
1 39 
1 40 
1 41 
1 42 
1 43 
1 44 
1 45 
1 46 
1 47 
1 48 
1 49 
1 50 
1 51 
1 52 
1 53 
1 54 
1 55 
1 56 
1 57 
1 58 
1 59 
1 60 
1 61 
1 62 
1 63 
1 64 
1 65 
1 66 
1 67 
1 68 
1 69 
1 70 
1 71 
1 72 
1 73 
1 74 
1 75 
1 76 
1 77 
1 78 
1 79 
1 80 
1 81 
1 82 
1 83 
1 84 
1 85 
1 86 
1 87 
1 88 
1 89 
1 90 
1 91 
1 92 
1 93 
1 94 
1 95 
1 96 
1 97 
1 98 
1 99 
1 100 
1 101 
1 102 
1 103 
1 104 
1 105 
1 106 
1 107 
1 108 
1 109 
1 110 
1 111 
1 112 
1 113 
1 114 
1 115 
1 116 
1 117 
1 118 
1 119 
1 120 
1 121 
1 122 
1 123 
1 124 
1 125 
1 126 
1 127 
1 128 
1 129 
1 130 
1 131 
1 132 
1 133 
1 134 
1 135 
1 136 
1 137 
1 138 
1 139 
1 140 
1 141 
1 142 
1 143 
1 144 
1 145 
1 146 
1 147 
1 148 
1 149 
1 150 
1 151 
1 152 
1 153 
1 154 
1 155 
1 156 
1 157 
1 158 
1 159 
1 160 
1 161 
1 162 
1 163 
1 164 
1 165 
1 166 
1 167 
1 168 
1 169 
1 170 
1 171 
1 172 
1 173 
1 174 
1 175 
1 176 
1 177 
1 178 
1 179 
1 180 
1 181 
1 182 
1 183 
1 184 
1 185 
1 186 
1 187 
1 188 
1 189 
1 190 
1 191 
1 192 
1 193 
1 194 
1 195 
1 196 
1 197 
1 198 
1 199 
1 200 
1 201 
1 202 
1 203 
1 204 
1 205 
1 206 
1 207 
1 208 
1 209 
1 210 
1 211 
1 212 
1 213 
1 214 
1 215 
1 216 
1 217 
1 218 
1 219 
1 220 
1 221 
1 222 
1 223 
1 224 
1 225 
1 226 
1 227 
1 228 
1 229 
1 230 
1 231 
1 232 
1 233 
1 234 
1 235 
1 236 
1 237 
1 238 
1 239 
1 240 
1 241 
1 242 
1 243 
1 244 
1 245 
1 246 
1 247 
1 248 
1 249 
1 250 
1 251 
1 252 
1 253 
1 254 
1 255 
1 256 
1 257 
1 258 
1 259 
1 260 
1 261 
1 262 
1 263 
1 264 
1 265 
1 266 
1 267 
1 268 
1 269 
1 270 
1 271 
1 272 
1 273 
1 274 
1 275 
1 276 
1 277 
1 278 
1 279 
1 280 
1 281 
1 282 
1 283 
1 284 
1 285 
1 286 
1 287 
1 288 
1 289 
1 290 
1 291 
1 292 
1 293 
1 294 
1 295 
1 296 
1 297 
1 298 
1 299 
1 300 
1 301 
1 302 
1 303 
1 304 
1 305 
1 306 
1 307 
1 308 
1 309 
1 310 
1 311 
1 312 
1 313 
1 314 
1 315 
1 316 
1 317 
1 318 
1 319 
1 320 
1 321 
1 322 
1 323 
1 324 
1 325 
1 326 
1 327 
1 328 
1 329 
1 330 
1 331 
1 332 
1 333 
1 334 
1 335 
1 336 
1 337 
1 338 
1 339 
1 340 
1 341 
1 342 
1 343 
1 344 
1 345 
1 346 
1 347 
1 348 
1 349 
1 350 
1 351 
1 352 
1 353 
1 354 
1 355 
1 356 
1 357 
1 358 
1 359 
1 360 
1 361 
1 362 
1 363 
1 364 
1 365 
1 366 
1 367 
1 368 
1 369 
1 370 
1 371 
1 372 
1 373 
1 374 
1 375 
1 376 
1 377 
1 378 
1 379 
1 380 
1 381 
1 382 
1 383 
1 384 
1 385 
1 386 
1 387 
1 388 
1 389 
1 390 
1 391 
1 392 
1 393 
1 394 
1 395 
1 396 
1 397 
1 398 
1 399 
1 400 
1 401 
1 402 
1 403 
1 404 
1 405 
1 406 
1 407 
1 408 
1 409 
1 410 
1 411 
1 412 
1 413 
1 414 
1 415 
1 416 
1 417 
1 418 
1 419 
1 420 
1 421 
1 422 
1 423 
1 424 
1 425 
1 426 
1 427 
1 428 
1 429 
1 430 
1 431 
1 432 
1 433 
1 434 
1 435 
1 436 
1 437 
1 438 
1 439 
1 440 
1 441 
1 442 
1 443 
1 444 
1 445 
1 446 
1 447 
1 448 
1 449 
1 450 
1 451 
1 452 
1 453 
1 454 
1 455 
1 456 
1 457 
1 458 
1 459 
1 460 
1 461 
1 462 
1 463 
1 464 
1 465 
1 466 
1 467 
1 468 
1 469 
1 470 
1 471 
1 472 
1 473 
1 474 
1 475 
1 476 
1 477 
1 478 
1 479 
1 480 
1 481 
1 482 
1 483 
1 484 
1 485 
1 486 
1 487 
1 488 
1 489 
1 490 
1 491 
1 492 
1 493 
1 494 
1 495 
1 496 
1 497 
1 498 
1 499 
1 500 
1 501 
1 502 
1 503 
1 504 
1 505 
1 506 
1 507 
1 508 
1 509 
1 510 
1 511 
1 512 
1 513 
1 514 
1 515 
1 516 
1 517 
1 518 
1 519 
1 520 
1 521 
1 522 
1 523 
1 524 
POINT_DATA 525 
SCALARS MeanU double 1 
LOOKUP_TABLE default
0.07790 
0.07675 
0.05242 
0.08854 
0.08818 
0.08352 
0.08414 
0.05216 
0.10213 
0.11211 
0.05221 
0.09060 
0.08686 
0.08813 
0.13541 
0.09055 
0.05225 
0.10034 
0.07330 
0.10104 
0.13148 
0.06909 
0.13711 
0.11231 
0.10261 
0.04387 
0.09741 
0.09687 
0.07235 
0.09779 
0.09919 
0.16230 
0.08232 
0.05966 
0.15466 
0.15135 
0.04417 
0.18041 
0.10417 
0.08590 
0.06334 
0.05351 
0.13687 
0.04703 
0.05406 
0.08920 
0.10844 
0.04801 
0.05370 
0.08605 
0.03152 
0.08861 
0.16465 
0.12654 
0.08330 
0.11635 
0.11557 
0.10526 
0.06197 
0.03688 
0.12146 
0.09346 
0.05537 
0.12695 
0.08151 
0.15323 
0.09326 
0.11491 
0.11234 
0.04740 
0.05975 
0.10618 
0.02414 
0.16181 
0.08872 
0.09089 
0.07765 
0.13347 
0.06552 
0.14357 
0.10520 
0.01969 
0.12269 
0.07187 
0.09074 
0.09981 
0.08294 
0.13071 
0.06196 
0.02251 
0.17414 
0.08696 
0.11329 
0.02299 
0.13467 
0.01449 
0.11176 
0.10812 
0.09873 
0.09201 
0.06425 
0.06284 
0.08674 
0.08273 
0.14451 
0.03904 
0.09058 
0.14423 
0.11171 
0.08302 
0.09483 
0.09219 
0.13958 
0.10010 
0.07671 
0.16309 
0.13518 
0.08354 
0.07791 
0.20720 
0.08759 
0.08963 
0.08263 
0.15189 
0.09797 
0.11126 
0.17035 
0.12396 
0.13269 
0.00622 
0.09108 
0.05855 
0.13789 
0.07819 
0.11192 
0.10218 
0.04075 
0.14978 
0.11487 
0.10245 
0.08040 
0.11827 
0.04044 
0.06106 
0.14878 
0.04841 
0.07924 
0.01936 
0.09525 
0.08240 
0.12993 
0.07201 
0.06867 
0.06117 
0.03616 
0.07908 
0.05099 
0.09253 
0.09802 
0.03688 
0.18049 
0.04450 
0.06903 
0.06367 
0.08171 
0.07258 
0.04360 
0.06903 
0.06039 
0.07702 
0.05632 
0.06833 
0.01607 
0.10745 
0.10560 
0.10736 
0.09301 
0.05854 
0.06157 
0.18902 
0.03575 
0.09763 
0.21092 
0.12426 
0.16147 
0.06700 
0.03734 
0.15649 
0.04960 
0.14997 
0.08102 
0.02609 
0.03607 
0.05197 
0.06471 
0.02801 
0.12570 
0.08746 
0.06054 
0.06551 
0.05470 
0.14227 
0.08690 
0.04186 
0.16378 
0.12027 
0.06004 
0.21290 
0.13740 
0.10992 
0.13045 
0.04383 
0.08454 
0.09797 
0.12596 
0.10179 
0.05666 
0.08372 
0.10401 
0.09867 
0.11744 
0.09699 
0.03289 
0.13788 
0.09383 
0.03676 
0.09047 
0.07111 
0.11113 
0.02071 
0.11222 
0.01086 
0.08520 
0.07431 
0.07631 
0.14531 
0.05094 
0.08404 
0.03747 
0.02673 
0.11322 
0.16136 
0.12484 
0.07709 
0.11210 
0.09908 
0.12949 
0.11909 
0.10834 
0.12262 
0.13314 
0.08302 
0.13452 
0.15591 
0.10147 
0.12076 
0.09534 
0.08735 
0.04949 
0.09702 
0.08513 
0.10687 
0.10354 
0.10600 
0.08609 
0.08445 
0.06024 
0.13693 
0.08185 
0.07839 
0.04917 
0.08423 
0.05452 
0.11459 
0.08759 
0.10023 
0.09439 
0.11264 
0.20304 
0.07462 
0.10670 
0.12112 
0.08573 
0.14308 
0.06841 
0.07955 
0.06406 
0.05380 
0.06019 
0.10752 
0.09478 
0.10887 
0.18864 
0.08540 
0.06728 
0.09904 
0.14034 
0.08039 
0.08175 
0.09835 
0.08886 
0.13365 
0.11385 
0.16056 
0.09689 
0.19976 
0.11292 
0.05125 
0.07709 
0.08465 
0.12760 
0.09719 
0.06567 
0.21290 
0.12772 
0.07767 
0.12715 
0.07796 
0.04790 
0.07124 
0.06716 
0.05722 
0.07902 
0.13510 
0.08601 
0.11950 
0.04659 
0.11027 
0.02616 
0.06007 
0.07926 
0.20099 
0.06785 
0.10748 
0.13029 
0.08628 
0.09888 
0.01851 
0.18839 
0.09505 
0.04041 
0.02835 
0.08606 
0.11080 
0.07293 
0.12407 
0.12690 
0.11966 
0.15079 
0.06668 
0.08811 
0.10191 
0.10613 
0.23757 
0.19536 
0.07728 
0.12297 
0.16580 
0.26196 
0.06491 
0.08411 
0.05302 
0.10455 
0.15655 
0.04697 
0.05011 
0.05971 
0.16592 
0.17268 
0.03333 
0.05937 
0.07464 
0.08527 
0.10319 
0.14456 
0.12371 
0.03227 
0.10150 
0.06476 
0.15902 
0.08441 
0.03057 
0.05395 
0.08242 
0.17503 
0.18185 
0.06389 
0.07787 
0.06078 
0.11205 
0.10480 
0.13614 
0.13276 
0.07510 
0.03219 
0.06710 
0.06462 
0.13251 
0.14937 
0.11531 
0.12912 
0.02965 
0.14625 
0.23174 
0.10108 
0.10411 
0.12578 
0.13625 
0.16193 
0.13770 
0.20824 
0.11497 
0.07776 
0.09849 
0.26430 
0.13674 
0.10072 
0.09328 
0.12270 
0.26056 
0.16491 
0.16262 
0.16270 
0.17602 
0.10709 
0.09875 
0.10421 
0.11417 
0.12099 
0.05979 
0.07998 
0.06834 
0.13987 
0.15197 
0.03614 
0.10726 
0.05329 
0.05403 
0.11337 
0.14356 
0.19658 
0.22310 
0.09036 
0.08056 
0.07090 
0.11284 
0.07258 
0.13719 
0.06873 
0.03656 
0.12236 
0.05297 
0.16615 
0.05527 
0.12463 
0.07640 
0.06509 
0.09937 
0.16909 
0.12572 
0.15188 
0.10786 
0.15525 
0.03925 
0.11270 
0.11086 
0.05241 
0.03872 
0.10183 
0.08989 
0.07085 
0.15243 
0.08673 
0.11281 
0.13176 
0.02255 
0.09031 
0.08051 
0.09782 
0.21064 
0.05717 
0.06509 
0.06853 
0.22069 
0.08713 
0.16423 
0.07233 
0.12595 
0.11954 
0.05123 
0.10304 
0.11293 
0.16496 
0.14739 
0.15536 
0.04061 
0.04684 
0.05305 
0.09716 
0.10715 
0.09551 
0.15663 
0.02492 
0.08653 
0.10942 
0.12671 
0.09152 
0.03661 
0.10037 
0.08760 
0.10187 
0.15077 
0.06784 
0.07643 
0.07973 
0.13800 
0.10852 
0.06124 
0.07756 
0.05241 
0.18731 
0.09428 
0.09041 
0.17791 
0.09084 

 VECTORS Umean float 
0.01200 0.06350 -0.04350 
-0.02600 0.00550 -0.07200 
-0.01500 -0.01900 -0.04650 
-0.02100 0.08150 0.02750 
-0.07450 0.03600 0.03050 
-0.05750 -0.00300 -0.06050 
-0.00950 -0.01000 -0.08300 
-0.05100 -0.01050 -0.00300 
0.04500 0.08900 -0.02200 
-0.07750 0.02000 -0.07850 
-0.05150 -0.00500 0.00700 
-0.05200 0.04150 -0.06150 
-0.06450 0.02400 -0.05300 
-0.06050 0.03450 -0.05400 
-0.01650 0.01550 -0.13350 
-0.08650 0.01450 -0.02250 
0.04300 0.01600 -0.02500 
-0.02150 0.05050 -0.08400 
-0.00100 -0.00650 -0.07300 
0.04550 0.06600 -0.06150 
-0.08600 0.03250 -0.09400 
-0.02100 0.06550 -0.00650 
0.05950 0.12350 0.00250 
-0.03950 0.07050 -0.07800 
-0.05300 0.05800 -0.06600 
-0.01550 0.01550 -0.03800 
-0.06750 0.06000 -0.03650 
-0.03850 0.03050 -0.08350 
-0.02750 0.05850 -0.03250 
0.00900 -0.00850 -0.09700 
-0.06300 0.06200 -0.04500 
0.06650 0.13350 0.06400 
-0.04000 0.07150 -0.00800 
-0.04100 0.00850 -0.04250 
0.02150 0.11600 -0.10000 
0.04050 0.10800 -0.09800 
-0.00950 0.03000 -0.03100 
0.10000 0.07250 -0.13150 
-0.07050 0.06350 0.04300 
-0.05550 -0.00300 -0.06550 
0.02450 0.03400 -0.04750 
0.01850 0.04850 -0.01300 
0.08000 0.10950 0.01850 
0.03000 0.01600 -0.03250 
0.02550 0.01050 -0.04650 
-0.06350 0.06000 -0.01800 
0.01400 -0.00250 -0.10750 
-0.02550 0.02950 -0.02800 
0.01350 0.01000 -0.05100 
-0.03200 0.04350 -0.06700 
-0.03100 0.00550 -0.00150 
-0.06800 0.00600 -0.05650 
0.08200 0.12300 -0.07250 
0.00450 0.11550 -0.05150 
-0.03350 0.03550 -0.06750 
0.06550 0.00550 -0.09600 
-0.05650 0.07350 -0.06900 
0.00550 0.09300 -0.04900 
0.00150 -0.02650 -0.05600 
0.02700 0.01700 -0.01850 
-0.08100 0.08950 0.01350 
-0.00450 0.07650 -0.05350 
-0.04750 -0.00900 -0.02700 
0.04450 0.08750 -0.08050 
0.01850 0.07500 -0.02600 
-0.07850 0.01250 -0.13100 
-0.02050 0.07050 -0.05750 
-0.03850 0.01950 -0.10650 
-0.09950 0.05200 0.00400 
-0.02550 -0.00600 -0.03950 
-0.00650 0.04200 -0.04200 
-0.03800 0.09700 -0.02050 
-0.00050 0.00250 -0.02400 
0.01600 0.16100 -0.00200 
0.02450 0.05800 -0.06250 
0.05400 0.04450 0.05800 
0.00600 0.06800 -0.03700 
0.02750 0.12700 -0.03050 
0.03100 -0.00500 -0.05750 
0.06650 0.05850 0.11300 
0.02550 0.09550 -0.03600 
0.00500 0.01750 0.00750 
0.01200 0.12200 0.00500 
-0.03650 0.03200 -0.05300 
-0.08350 0.03550 -0.00100 
-0.04100 0.05500 -0.07250 
0.02250 0.06100 -0.05150 
-0.10750 0.03700 -0.06450 
0.02700 -0.00550 -0.05550 
0.01800 -0.01350 0.00050 
0.06950 0.13050 -0.09200 
0.05000 0.06250 -0.03400 
0.03700 0.10500 -0.02100 
-0.01850 -0.00200 -0.01350 
-0.03200 0.13050 -0.00900 
0.01300 0.00400 0.00500 
0.01700 -0.01450 0.10950 
0.04200 0.09950 0.00500 
-0.00700 0.01700 -0.09700 
0.03750 0.08400 -0.00200 
0.01100 0.06150 -0.01500 
0.03300 0.02550 -0.04700 
0.03200 -0.04700 -0.06550 
-0.07500 -0.02750 0.02150 
0.03850 0.13000 -0.05000 
-0.00600 0.03650 0.01250 
0.05700 0.06050 0.03600 
0.07200 0.10550 -0.06700 
0.05050 0.05200 -0.08500 
0.01450 0.08100 0.01100 
0.02700 0.07000 -0.05800 
0.01700 0.09000 -0.01050 
-0.07600 0.09900 -0.06250 
-0.01900 0.02700 -0.09450 
-0.00800 0.07500 0.01400 
0.11350 0.11650 -0.01200 
0.09500 -0.06850 -0.06750 
0.02150 0.05400 -0.06000 
-0.02350 -0.02750 -0.06900 
0.08500 0.03850 -0.18500 
-0.07500 0.04250 -0.01550 
0.02850 0.04350 0.07300 
-0.08150 0.00400 -0.01300 
-0.00700 0.12500 0.08600 
0.04150 0.08800 0.01150 
0.00650 0.08500 -0.07150 
-0.03100 0.15100 -0.07250 
-0.00850 0.10700 -0.06200 
-0.00100 -0.00700 0.13250 
0.00250 -0.00550 -0.00150 
-0.00950 0.06650 0.06150 
-0.04750 -0.00400 -0.03400 
0.02150 0.13450 0.02150 
0.02700 -0.00750 -0.07300 
-0.03100 0.04200 0.09900 
0.04500 0.09050 -0.01500 
-0.00950 -0.03450 -0.01950 
0.04700 0.12750 -0.06300 
0.07500 0.08700 -0.00100 
0.00350 0.10000 -0.02200 
-0.05150 0.05250 -0.03250 
-0.00700 0.10550 0.05300 
0.02950 0.02100 0.01800 
0.02450 0.03750 -0.04150 
-0.00800 0.08550 -0.12150 
-0.01150 0.03350 0.03300 
0.00400 -0.01600 -0.07750 
-0.01650 -0.00950 -0.00350 
-0.09350 -0.00650 -0.01700 
-0.02050 0.06300 -0.04900 
-0.02300 0.12500 -0.02700 
-0.00800 0.06350 0.03300 
0.01200 -0.00400 -0.06750 
0.03600 0.04500 -0.02050 
-0.01750 0.03150 0.00300 
-0.03800 0.02900 -0.06300 
-0.04000 0.02000 -0.02450 
-0.07000 -0.00100 -0.06050 
0.01450 0.02900 -0.09250 
-0.00350 0.03650 0.00400 
0.13100 0.11450 -0.04800 
0.01400 0.04200 -0.00450 
-0.01250 -0.02400 -0.06350 
0.00400 0.06350 0.00250 
0.03700 0.07150 -0.01400 
0.01400 0.07100 0.00550 
0.00400 -0.03550 0.02500 
-0.00000 -0.05400 -0.04300 
-0.01500 -0.04650 0.03550 
0.00050 0.07500 -0.01750 
-0.00050 0.03250 -0.04600 
-0.03350 0.05800 -0.01350 
-0.00900 0.01100 -0.00750 
-0.07650 0.01200 -0.07450 
-0.07150 -0.06150 0.04750 
0.04150 0.08200 -0.05550 
0.03450 0.00800 -0.08600 
0.00650 0.05100 0.02800 
-0.02550 -0.05400 -0.01500 
0.12900 0.11300 -0.07950 
-0.00450 0.02700 -0.02300 
-0.01100 -0.00100 -0.09700 
0.03600 0.18300 -0.09850 
0.07350 0.06350 -0.07750 
0.05300 0.15100 0.02150 
-0.04700 -0.01450 -0.04550 
-0.02850 -0.02400 -0.00250 
-0.09800 0.11300 -0.04600 
0.01200 0.03550 -0.03250 
0.04900 0.04900 -0.13300 
0.04000 0.06850 -0.01650 
0.00850 -0.02350 0.00750 
0.00150 0.03150 -0.01750 
-0.02600 -0.04500 -0.00000 
-0.02750 0.05700 -0.01350 
-0.01350 -0.02050 0.01350 
0.01550 0.08200 0.09400 
0.01600 0.08500 -0.01300 
0.02400 -0.00800 -0.05500 
0.00050 -0.05300 -0.03850 
-0.00800 0.04400 -0.03150 
0.02850 0.12850 0.05400 
-0.04600 0.01800 -0.07150 
-0.00450 -0.02000 -0.03650 
-0.11600 0.07500 -0.08800 
0.00350 0.06200 0.10300 
0.02850 0.02850 -0.04450 
-0.04300 0.13250 0.16100 
-0.12950 0.03600 -0.02850 
-0.00900 0.10950 -0.00350 
-0.00850 0.06800 -0.11100 
0.00100 0.01250 -0.04200 
0.04100 0.07250 0.01450 
-0.06350 0.07450 0.00400 
0.01700 0.08800 0.08850 
0.02900 0.02950 -0.09300 
-0.03150 0.04700 0.00300 
0.01900 0.08150 -0.00250 
0.00050 0.10400 0.00100 
0.01200 0.06850 -0.07000 
0.00850 0.10000 -0.06100 
0.03150 0.08500 0.03450 
-0.01700 0.02650 0.00950 
0.01050 0.13500 -0.02600 
-0.07700 0.01800 -0.05050 
-0.02250 -0.01300 -0.02600 
0.02850 -0.02000 -0.08350 
-0.06850 0.01300 -0.01400 
0.04500 0.07550 -0.06800 
-0.01150 0.01550 -0.00750 
-0.05250 -0.00600 -0.09900 
0.00100 -0.00600 0.00900 
-0.01700 0.04050 -0.07300 
0.01900 0.06550 -0.02950 
-0.03750 0.02750 -0.06050 
0.13250 -0.01400 0.05800 
-0.03150 0.01850 -0.03550 
-0.02000 0.00450 -0.08150 
0.03600 0.00600 -0.00850 
0.00250 -0.00250 -0.02650 
-0.04150 0.00850 -0.10500 
0.00400 0.13950 -0.08100 
0.07650 0.04150 -0.08950 
-0.01950 0.07450 0.00350 
-0.03550 0.09100 -0.05500 
-0.03100 0.05550 -0.07600 
0.10350 0.07000 0.03400 
0.09400 0.00950 0.07250 
-0.00850 -0.10800 -0.00050 
-0.05100 0.05500 -0.09700 
0.09050 0.05600 -0.08000 
0.04950 -0.03100 -0.05900 
-0.10700 0.08150 0.00200 
0.07300 0.13600 0.02200 
0.05100 0.06400 -0.06000 
-0.03600 0.03750 0.10900 
-0.03200 -0.08550 0.02750 
-0.05700 -0.01250 -0.06500 
0.01450 0.02950 -0.03700 
-0.03400 0.08750 -0.02450 
0.00150 -0.00450 -0.08500 
-0.01500 0.10400 0.01950 
0.00100 0.09200 -0.04750 
-0.10000 0.02700 -0.02250 
0.01050 0.04900 -0.07000 
0.01600 0.05450 -0.06250 
0.01200 -0.02700 -0.05250 
0.05000 0.08500 0.09500 
-0.01550 0.03250 -0.07350 
-0.01700 0.07550 0.01250 
0.02850 0.03500 -0.01950 
-0.05700 -0.03600 0.05050 
0.01550 0.01350 -0.05050 
-0.07100 -0.06700 0.06000 
-0.01150 0.07600 -0.04200 
0.02600 0.08000 0.05450 
0.02400 0.01800 -0.08950 
0.01000 0.11150 0.01250 
0.04250 0.19850 -0.00400 
-0.03050 0.05400 0.04150 
-0.05850 0.06650 -0.05950 
-0.05900 0.10000 0.03450 
-0.05500 0.04600 -0.04700 
0.03000 0.02300 0.13800 
-0.01750 0.04550 -0.04800 
0.02900 -0.03050 -0.06750 
-0.02500 0.05600 0.01850 
-0.01800 0.04700 -0.01900 
-0.03050 -0.04700 -0.02200 
0.06200 -0.06850 -0.05500 
0.03250 0.08500 -0.02650 
-0.01850 0.09300 -0.05350 
0.04250 0.17950 -0.03950 
-0.01250 0.08400 0.00900 
0.02450 0.04200 -0.04650 
-0.08250 0.04650 -0.02900 
0.06550 0.07000 -0.10250 
0.02400 0.07200 -0.02650 
-0.05350 0.01000 -0.06100 
-0.06850 0.02500 -0.06600 
-0.00100 0.08250 -0.03300 
-0.05500 0.01400 -0.12100 
0.07250 0.06500 -0.05900 
0.01700 0.15900 -0.01450 
0.05650 0.06350 -0.04650 
0.13850 0.12550 -0.07050 
0.04950 0.09950 -0.02000 
0.04250 0.02050 -0.02000 
-0.01700 -0.03100 -0.06850 
0.02500 -0.04300 0.06850 
-0.09100 0.04000 -0.08000 
0.01400 -0.06700 -0.06900 
0.05800 -0.02600 0.01650 
0.11750 0.16250 -0.07150 
-0.08000 0.09950 -0.00350 
-0.03900 -0.06150 0.02700 