# vtk DataFile Version 2.0 
Xm, Ym, Zm, Uvecs, timestep 10153 
ASCII 
 
DATASET POLYDATA POINTS 483 float 
 -6.758   7.261 -70.672 
 -6.742  -4.751 -72.779 
 -0.635   7.056 -68.462 
  2.157   4.579 -72.432 
 -8.588  -4.096 -72.910 
  1.595   5.749 -70.843 
  7.754   3.298 -70.366 
  1.165   6.322 -74.555 
  3.813   0.508 -73.558 
 14.157   0.986 -71.236 
 -8.900   0.478 -72.549 
 -7.615   5.287 -71.010 
 -4.136   6.740 -67.375 
  4.011   5.540 -71.618 
  5.513  -0.555 -69.200 
  0.206   3.508 -70.778 
  2.672   7.345 -73.341 
 -2.219   5.766 -70.644 
 -0.683   7.810 -68.031 
 -9.635   4.398 -68.743 
  0.778   1.821 -72.142 
-10.573   5.658 -75.753 
  0.075   4.529 -69.228 
 -6.898   2.999 -73.111 
 -7.976   4.647 -74.210 
  3.841   5.409 -69.191 
 -2.413  -9.349 -72.760 
  3.268  -1.019 -69.930 
 -6.976   3.800 -69.505 
 11.081   4.060 -72.166 
 13.865   3.297 -70.577 
-13.430   7.679 -68.381 
  5.572  -7.479 -70.407 
  6.040  -2.729 -73.139 
 11.925  -2.493 -68.325 
 -0.486   9.998 -72.047 
 11.988   0.760 -68.242 
 -0.449  -1.801 -67.346 
 11.698  11.759 -69.213 
 -5.973  10.810 -64.670 
 -1.918   4.642 -68.984 
  0.067   5.005 -64.707 
 -2.476   3.047 -65.793 
 -3.856   1.677 -69.861 
 -3.182   1.474 -67.290 
 -8.447  -1.025 -67.858 
 -7.701   7.948 -69.218 
  4.418   2.310 -65.722 
 -2.773  -8.438 -67.751 
 -5.604  -8.385 -72.213 
-12.695  -2.744 -74.517 
 -0.637   8.015 -72.877 
 16.099   2.137 -68.429 
 -4.736  10.081 -64.967 
 -7.926  -3.022 -67.721 
  7.740   7.614 -69.263 
 -8.457   9.895 -65.588 
 -8.671   7.192 -70.986 
 -7.938  -3.424 -73.387 
 -5.511  -3.286 -66.927 
 -7.827   8.149 -71.936 
  9.774  -0.811 -69.264 
 -2.830   0.157 -65.914 
 -8.006  -5.513 -70.444 
  2.653  -8.893 -68.524 
  1.446   3.783 -67.552 
 -4.985   5.789 -67.134 
-11.111   7.352 -74.138 
  1.119   8.646 -72.709 
 15.904   3.379 -69.569 
  9.531  -0.095 -71.313 
 -2.142  -5.623 -67.802 
  1.193   6.245 -70.584 
 -1.307   0.942 -74.492 
 12.681   9.048 -70.960 
  1.023   0.395 -75.632 
  3.924 -10.697 -69.606 
 -4.758   4.651 -62.825 
-14.246  -5.383 -72.576 
 -8.715   8.626 -71.317 
  6.860  -1.903 -69.051 
-11.259   7.088 -69.358 
  5.775   1.938 -63.020 
  5.755   3.687 -72.525 
 11.476   7.915 -68.518 
-13.107  -0.651 -68.368 
 -1.809  12.309 -69.005 
 -8.332   8.061 -65.220 
 -4.101   4.689 -62.584 
 12.535  -3.154 -69.101 
-10.252  11.424 -77.172 
  9.758 -13.087 -67.992 
  5.957  -5.322 -65.723 
  3.251  -5.875 -67.028 
  1.192   7.171 -61.877 
 -4.731  11.439 -69.397 
  3.349  -3.779 -66.807 
 14.556  -4.451 -67.941 
  8.208 -12.750 -70.537 
  4.556  10.721 -67.894 
 10.058   9.441 -67.703 
  0.499   9.631 -71.115 
  7.099   1.946 -65.071 
  3.320  -9.799 -62.633 
  3.981  -2.943 -65.674 
 14.166   4.771 -66.796 
 10.790  12.019 -69.051 
 12.790   4.694 -67.669 
  1.084  -5.497 -75.712 
  9.313  10.185 -68.368 
 -0.569  12.867 -66.471 
 -7.146 -12.037 -67.320 
 -1.180  -7.758 -69.472 
 -2.641  -4.736 -70.995 
  9.348  -3.314 -70.686 
  0.535  10.562 -71.278 
-14.806 -10.253 -74.741 
 -2.402 -11.532 -64.261 
 13.905   8.236 -69.584 
  2.593  -9.616 -69.347 
-11.917  -7.119 -71.386 
 -2.841 -12.416 -68.803 
  0.602   2.584 -72.958 
  9.252  -0.491 -64.068 
 -3.961  -1.302 -63.971 
 -2.608  -2.962 -61.439 
  8.355   2.066 -68.573 
  2.208  -1.172 -70.898 
  8.587   6.898 -63.653 
  3.796   6.079 -65.642 
-11.259  -2.740 -74.386 
 -4.678  12.307 -65.734 
  8.555   8.123 -73.817 
 -5.620  10.235 -62.041 
 -8.466   2.080 -73.233 
  6.060  -4.130 -77.570 
  0.697  -3.163 -69.010 
  7.645  11.246 -68.724 
 12.467   2.178 -67.440 
  3.723 -11.031 -63.987 
-12.504   6.048 -65.360 
  1.843  12.787 -64.471 
 16.567  -0.548 -68.719 
  6.712  -7.412 -70.821 
  3.616  -8.367 -75.238 
  3.257   5.337 -65.471 
-12.357  11.375 -66.746 
 13.304   2.724 -67.350 
 -4.015 -12.008 -75.194 
  4.524   5.342 -69.482 
-10.520  -9.814 -69.819 
  4.106  -8.785 -61.776 
 -2.813  -2.165 -69.821 
  7.768  10.305 -72.067 
  1.703   2.651 -61.799 
  2.809  10.589 -67.894 
 -7.188  -5.612 -73.820 
  0.287 -11.092 -75.061 
-11.288   3.332 -66.303 
 10.251 -12.722 -67.148 
 -3.474   8.308 -64.578 
  0.818   3.587 -68.839 
 -1.980   5.716 -66.376 
 -9.282  -7.699 -73.364 
 10.753  -2.010 -66.674 
-15.109  -2.829 -72.642 
-10.418  -0.338 -65.262 
 -5.246  -5.161 -66.692 
 -8.709  12.151 -64.671 
 -2.800  -6.927 -67.854 
 16.846  12.243 -72.449 
  2.282  10.250 -63.575 
  6.821  12.494 -65.291 
  6.908   0.186 -72.934 
-10.148  10.236 -68.719 
 -5.280  -7.438 -69.921 
  4.861  -1.833 -65.718 
 -6.864   5.580 -72.846 
 -3.918  -1.914 -72.407 
  2.907   8.822 -69.804 
 11.585 -11.519 -70.564 
-13.522  -5.018 -70.657 
  9.453   3.732 -67.404 
  2.005  -6.957 -64.757 
 -8.982  10.323 -74.447 
  8.355  -2.662 -68.835 
  2.665   5.997 -65.272 
-14.274  -6.867 -72.127 
  0.126   5.354 -66.854 
-14.478   1.478 -73.644 
 11.900   9.745 -71.281 
  5.949  -2.869 -67.723 
  5.321   2.400 -67.348 
  3.945 -12.532 -71.751 
 -6.071  -3.777 -66.337 
  2.067  -9.649 -64.720 
  5.357 -12.262 -71.382 
 11.732  11.730 -67.512 
-16.083   0.802 -73.374 
 -5.133  -1.455 -66.236 
 -0.101  -2.486 -72.542 
 -9.376  -3.142 -72.443 
 -5.734   7.691 -62.087 
  9.204 -11.793 -70.723 
-10.458  -1.030 -71.695 
-11.032 -11.124 -72.252 
 -3.722  11.951 -70.299 
 13.241  -3.864 -69.206 
 14.104   1.081 -67.745 
  4.009  10.942 -61.841 
 -0.407   7.929 -69.611 
  4.255   7.611 -63.938 
  3.878  -1.341 -66.266 
  1.082  -1.473 -72.826 
-14.159   7.363 -72.812 
  2.273   7.728 -66.637 
  9.363   6.214 -62.907 
 -9.043  12.518 -72.087 
  0.822  -7.125 -65.938 
 -3.202   8.989 -68.688 
 11.270  12.493 -67.595 
  4.169   8.625 -69.736 
-10.855  10.370 -64.886 
 -0.283  -6.220 -66.526 
  4.543   1.897 -73.441 
 13.642 -12.569 -67.305 
  2.453   8.694 -77.362 
 -5.869   3.532 -72.607 
  1.665  -9.523 -73.847 
 -4.161   3.106 -64.201 
 14.326  -6.891 -66.526 
  9.258   9.298 -69.042 
  4.561   9.651 -59.869 
 -7.184  -5.362 -69.028 
  0.976   4.914 -65.673 
 11.343  -6.730 -74.013 
  5.672  -9.648 -71.975 
-12.762  -4.718 -69.853 
  2.976   3.268 -63.912 
 14.000   1.062 -64.794 
 -6.175  -0.671 -73.636 
  6.945   7.496 -74.139 
-13.884  12.303 -66.880 
 -6.825  -8.393 -67.743 
  7.949   8.712 -69.024 
 -8.323   7.034 -77.003 
-10.188   2.023 -71.100 
-13.627   3.786 -70.213 
  4.534  -8.386 -62.020 
  7.763   2.659 -64.834 
-10.210  -8.689 -73.245 
-13.666   7.954 -72.524 
 -4.200   2.574 -74.233 
  1.257  -7.524 -66.525 
  0.163  -6.563 -65.322 
  4.143  -2.029 -69.319 
  6.316   5.324 -61.888 
 -0.189  10.626 -72.824 
 -1.512  10.677 -64.443 
  8.640  12.915 -65.682 
 -3.838   1.087 -75.652 
  5.490 -10.002 -71.854 
 -9.691   2.166 -67.626 
 16.957  -1.817 -67.362 
 10.070  -7.462 -69.525 
 16.326  -4.642 -70.139 
  3.986  -7.527 -73.138 
 11.259  -9.578 -69.698 
 16.709   7.094 -70.604 
 -2.492   6.246 -73.697 
 10.598   1.871 -65.072 
 13.161  -9.381 -73.750 
 -0.131  10.006 -62.563 
 -9.907  -8.526 -70.916 
  4.540   9.463 -65.798 
 11.630   5.546 -69.136 
  7.960 -10.945 -63.557 
  2.204   0.990 -74.886 
  9.729  -9.625 -72.323 
-11.634  -7.969 -68.922 
  9.046   3.269 -60.428 
 10.223  -7.032 -63.879 
  5.137   8.685 -66.358 
-10.665  -5.023 -70.233 
  0.014   6.692 -74.553 
 -9.105  -4.633 -76.570 
  3.181  -7.310 -74.977 
-14.957  10.166 -72.290 
-10.541  -9.458 -67.233 
  0.368   8.053 -68.039 
 11.768  -2.867 -71.811 
  7.133  10.494 -71.432 
  9.069  -6.440 -70.344 
-15.445   3.248 -75.797 
  7.563   0.879 -63.793 
  6.839   4.473 -72.600 
 15.303   3.692 -71.139 
 -0.949  -7.156 -71.047 
 -3.558   1.908 -75.025 
 -3.744   9.060 -72.663 
  6.769  -9.607 -64.637 
 -1.073   1.145 -68.576 
  3.083  -0.137 -70.446 
 11.755  -4.278 -66.522 
 -0.012   2.319 -64.648 
  5.841   0.387 -68.858 
 16.788  11.707 -72.725 
 -4.167  -8.959 -77.141 
 -2.368  -5.692 -70.793 
 -0.351  -1.446 -72.984 
-12.787   8.791 -63.892 
  6.769  -4.852 -63.506 
 15.790   5.222 -68.731 
 -8.210  -3.194 -75.668 
 16.510  -9.544 -67.408 
 -0.081  11.070 -68.199 
-10.426  11.712 -66.061 
 12.232  -4.236 -61.895 
  5.988   0.778 -74.167 
-12.990   6.257 -76.391 
 -0.495  -4.608 -68.524 
 15.301  -4.806 -64.438 
 12.769 -12.201 -69.278 
-13.630  -8.248 -67.078 
 -7.416  13.099 -68.153 
-12.833  12.234 -67.542 
 -2.365  -5.696 -65.801 
-11.229  -7.220 -62.516 
 -7.425   0.327 -67.545 
  1.542   1.350 -61.350 
  7.280  -5.389 -75.973 
 -4.056 -11.009 -67.766 
  1.767   6.643 -64.338 
 -1.174  12.288 -64.093 
  8.694   1.346 -75.408 
-14.076  -1.503 -76.683 
 -4.135   8.071 -58.599 
-13.216   6.936 -73.855 
 12.722  -9.684 -64.489 
 -5.481  -2.717 -72.131 
-14.482  10.867 -71.317 
  7.764  -7.082 -63.471 
 -9.896   5.007 -65.307 
 11.535   0.212 -61.289 
  9.654  -8.626 -64.833 
  5.498   7.946 -63.130 
 11.830 -11.067 -67.707 
  6.827  -0.597 -62.577 
 -9.021 -10.221 -69.961 
  3.620  12.657 -71.294 
-15.214   0.555 -70.212 
  1.510   3.973 -61.166 
  0.349 -12.395 -71.429 
 11.454  -4.473 -67.940 
-13.541   6.412 -75.047 
 -7.777  11.900 -58.147 
  6.432  -7.804 -73.943 
 -4.489 -12.765 -65.819 
 16.718  -9.443 -72.725 
  1.162   4.726 -65.668 
 13.297  -8.811 -63.355 
 13.967 -11.213 -63.650 
 -2.447 -11.703 -70.115 
  4.662  -9.162 -68.865 
-12.435   1.062 -64.804 
  8.430  11.361 -63.979 
 -4.765  -7.342 -65.108 
  7.437  -0.951 -74.751 
-13.139   2.615 -75.720 
 -8.279  -9.511 -68.550 
 -4.362  11.148 -63.304 
-10.345   7.526 -74.004 
-13.642   9.477 -73.619 
  4.740   5.697 -63.797 
 16.895  -1.394 -65.859 
 -9.488  -3.809 -57.407 
 -2.706   0.678 -73.655 
 -5.359   8.227 -63.744 
  6.638   4.902 -72.023 
 12.052   2.017 -75.736 
 -4.292  -0.780 -58.482 
 -9.755  -2.496 -75.144 
 13.166   3.941 -62.487 
 -1.553  10.798 -62.645 
-10.284 -11.049 -64.499 
 -1.335  -4.404 -70.535 
  1.976   0.195 -63.837 
 -4.601  12.983 -61.592 
  6.256 -11.773 -65.083 
  3.309   7.791 -65.518 
  4.985  -1.509 -74.856 
  0.402  11.748 -61.453 
 -0.825 -10.736 -63.340 
  6.229 -10.907 -65.401 
  4.713  -3.208 -62.592 
 -3.200  -0.376 -73.293 
-12.865   8.276 -74.659 
-13.863  -5.696 -76.469 
  7.887 -10.131 -67.493 
-16.048   9.865 -73.441 
  7.422  11.195 -63.795 
 -2.113  11.951 -75.915 
 11.875   5.306 -63.798 
  1.236   5.268 -64.770 
 -9.076  -6.224 -66.017 
-10.025  10.015 -70.442 
 11.144  -9.383 -62.400 
  0.208   4.092 -61.773 
  4.482  -8.120 -72.155 
 11.834  -5.967 -67.918 
 -0.501  13.043 -65.252 
 15.931  -4.763 -63.398 
 17.707  -6.832 -66.656 
 -9.546 -12.422 -70.119 
 14.029   6.524 -66.787 
 -1.173  10.408 -65.677 
 -9.671   0.519 -66.067 
-15.172   4.338 -72.886 
 -0.693   4.872 -64.938 
  7.476   9.705 -58.769 
 -8.162  -1.530 -63.936 
  5.398 -10.402 -61.978 
 10.101   7.561 -61.350 
 18.142  -1.553 -68.027 
  8.482  -5.629 -72.111 
-13.535  -8.241 -73.686 
  4.123   1.776 -69.451 
 -1.788   9.709 -73.011 
  3.280   9.599 -77.264 
  5.093  -2.680 -59.233 
 14.744  -9.909 -63.276 
 14.764  -4.923 -69.345 
 15.356   6.108 -67.253 
 16.505  10.262 -66.144 
 -4.700  -6.247 -72.902 
  2.438   7.757 -74.983 
-13.750  -2.200 -65.369 
 -9.215 -11.488 -75.422 
  0.398  -5.497 -62.475 
 -8.736  11.201 -69.948 
  6.223 -11.740 -73.913 
 -2.648  -7.306 -68.822 
 17.994  -0.954 -69.732 
 -1.969 -10.336 -70.469 
-11.357  -8.820 -74.508 
 11.769 -12.006 -60.538 
-15.262  -5.971 -76.852 
 10.581  -3.463 -69.563 
 -0.625   5.226 -65.023 
 -6.559  -2.484 -73.050 
  1.300   0.969 -73.245 
 -2.030  -8.845 -71.085 
 -7.409   3.917 -69.122 
  2.793   4.803 -66.606 
 15.632  -7.610 -69.568 
 10.103  10.147 -72.719 
-13.836  -6.911 -73.379 
-15.503   0.186 -75.305 
  5.208  -0.425 -66.881 
  1.785  -1.021 -70.382 
  5.543  10.492 -66.505 
 11.650  -1.477 -71.803 
 11.023  -0.522 -65.380 
 10.684   3.021 -67.899 
  2.084 -11.247 -71.774 
 -3.039   3.615 -64.361 
 -0.044  13.262 -64.847 
 14.912   2.194 -71.259 
 17.028  -7.559 -73.990 
-10.385  13.301 -61.514 
-11.429   5.987 -67.480 
  8.729 -12.216 -65.109 
 -6.308   3.468 -75.875 
 12.459  -6.393 -60.763 
 11.590 -13.420 -63.073 
 16.192  -3.141 -66.392 
 17.072 -10.662 -73.623 
 -4.656  -8.855 -68.898 
 -1.942  -5.671 -75.174 
 -1.357   1.014 -60.721 
 -4.215 -12.222 -69.317 
  2.181   6.437 -64.996 
 15.728  -3.601 -75.251 

 VERTICES 483 966 
1 0 
1 1 
1 2 
1 3 
1 4 
1 5 
1 6 
1 7 
1 8 
1 9 
1 10 
1 11 
1 12 
1 13 
1 14 
1 15 
1 16 
1 17 
1 18 
1 19 
1 20 
1 21 
1 22 
1 23 
1 24 
1 25 
1 26 
1 27 
1 28 
1 29 
1 30 
1 31 
1 32 
1 33 
1 34 
1 35 
1 36 
1 37 
1 38 
1 39 
1 40 
1 41 
1 42 
1 43 
1 44 
1 45 
1 46 
1 47 
1 48 
1 49 
1 50 
1 51 
1 52 
1 53 
1 54 
1 55 
1 56 
1 57 
1 58 
1 59 
1 60 
1 61 
1 62 
1 63 
1 64 
1 65 
1 66 
1 67 
1 68 
1 69 
1 70 
1 71 
1 72 
1 73 
1 74 
1 75 
1 76 
1 77 
1 78 
1 79 
1 80 
1 81 
1 82 
1 83 
1 84 
1 85 
1 86 
1 87 
1 88 
1 89 
1 90 
1 91 
1 92 
1 93 
1 94 
1 95 
1 96 
1 97 
1 98 
1 99 
1 100 
1 101 
1 102 
1 103 
1 104 
1 105 
1 106 
1 107 
1 108 
1 109 
1 110 
1 111 
1 112 
1 113 
1 114 
1 115 
1 116 
1 117 
1 118 
1 119 
1 120 
1 121 
1 122 
1 123 
1 124 
1 125 
1 126 
1 127 
1 128 
1 129 
1 130 
1 131 
1 132 
1 133 
1 134 
1 135 
1 136 
1 137 
1 138 
1 139 
1 140 
1 141 
1 142 
1 143 
1 144 
1 145 
1 146 
1 147 
1 148 
1 149 
1 150 
1 151 
1 152 
1 153 
1 154 
1 155 
1 156 
1 157 
1 158 
1 159 
1 160 
1 161 
1 162 
1 163 
1 164 
1 165 
1 166 
1 167 
1 168 
1 169 
1 170 
1 171 
1 172 
1 173 
1 174 
1 175 
1 176 
1 177 
1 178 
1 179 
1 180 
1 181 
1 182 
1 183 
1 184 
1 185 
1 186 
1 187 
1 188 
1 189 
1 190 
1 191 
1 192 
1 193 
1 194 
1 195 
1 196 
1 197 
1 198 
1 199 
1 200 
1 201 
1 202 
1 203 
1 204 
1 205 
1 206 
1 207 
1 208 
1 209 
1 210 
1 211 
1 212 
1 213 
1 214 
1 215 
1 216 
1 217 
1 218 
1 219 
1 220 
1 221 
1 222 
1 223 
1 224 
1 225 
1 226 
1 227 
1 228 
1 229 
1 230 
1 231 
1 232 
1 233 
1 234 
1 235 
1 236 
1 237 
1 238 
1 239 
1 240 
1 241 
1 242 
1 243 
1 244 
1 245 
1 246 
1 247 
1 248 
1 249 
1 250 
1 251 
1 252 
1 253 
1 254 
1 255 
1 256 
1 257 
1 258 
1 259 
1 260 
1 261 
1 262 
1 263 
1 264 
1 265 
1 266 
1 267 
1 268 
1 269 
1 270 
1 271 
1 272 
1 273 
1 274 
1 275 
1 276 
1 277 
1 278 
1 279 
1 280 
1 281 
1 282 
1 283 
1 284 
1 285 
1 286 
1 287 
1 288 
1 289 
1 290 
1 291 
1 292 
1 293 
1 294 
1 295 
1 296 
1 297 
1 298 
1 299 
1 300 
1 301 
1 302 
1 303 
1 304 
1 305 
1 306 
1 307 
1 308 
1 309 
1 310 
1 311 
1 312 
1 313 
1 314 
1 315 
1 316 
1 317 
1 318 
1 319 
1 320 
1 321 
1 322 
1 323 
1 324 
1 325 
1 326 
1 327 
1 328 
1 329 
1 330 
1 331 
1 332 
1 333 
1 334 
1 335 
1 336 
1 337 
1 338 
1 339 
1 340 
1 341 
1 342 
1 343 
1 344 
1 345 
1 346 
1 347 
1 348 
1 349 
1 350 
1 351 
1 352 
1 353 
1 354 
1 355 
1 356 
1 357 
1 358 
1 359 
1 360 
1 361 
1 362 
1 363 
1 364 
1 365 
1 366 
1 367 
1 368 
1 369 
1 370 
1 371 
1 372 
1 373 
1 374 
1 375 
1 376 
1 377 
1 378 
1 379 
1 380 
1 381 
1 382 
1 383 
1 384 
1 385 
1 386 
1 387 
1 388 
1 389 
1 390 
1 391 
1 392 
1 393 
1 394 
1 395 
1 396 
1 397 
1 398 
1 399 
1 400 
1 401 
1 402 
1 403 
1 404 
1 405 
1 406 
1 407 
1 408 
1 409 
1 410 
1 411 
1 412 
1 413 
1 414 
1 415 
1 416 
1 417 
1 418 
1 419 
1 420 
1 421 
1 422 
1 423 
1 424 
1 425 
1 426 
1 427 
1 428 
1 429 
1 430 
1 431 
1 432 
1 433 
1 434 
1 435 
1 436 
1 437 
1 438 
1 439 
1 440 
1 441 
1 442 
1 443 
1 444 
1 445 
1 446 
1 447 
1 448 
1 449 
1 450 
1 451 
1 452 
1 453 
1 454 
1 455 
1 456 
1 457 
1 458 
1 459 
1 460 
1 461 
1 462 
1 463 
1 464 
1 465 
1 466 
1 467 
1 468 
1 469 
1 470 
1 471 
1 472 
1 473 
1 474 
1 475 
1 476 
1 477 
1 478 
1 479 
1 480 
1 481 
1 482 
POINT_DATA 483 
SCALARS MeanU double 1 
LOOKUP_TABLE default
0.18972 
0.09440 
0.07806 
0.25021 
0.11001 
0.13504 
0.23743 
0.11885 
0.17713 
0.12612 
0.18140 
0.22308 
0.08388 
0.16329 
0.22196 
0.22118 
0.08533 
0.16909 
0.05684 
0.17054 
0.22369 
0.12230 
0.20056 
0.21693 
0.17951 
0.18239 
0.11102 
0.19432 
0.22613 
0.22473 
0.17017 
0.16124 
0.17574 
0.29356 
0.14307 
0.06099 
0.13575 
0.30294 
0.13511 
0.09946 
0.21122 
0.15566 
0.26464 
0.22201 
0.18248 
0.22736 
0.11922 
0.23487 
0.10178 
0.19708 
0.13848 
0.10667 
0.12987 
0.09975 
0.22804 
0.05882 
0.10196 
0.18850 
0.08382 
0.31311 
0.22535 
0.16944 
0.14891 
0.14682 
0.14572 
0.16366 
0.14375 
0.18122 
0.11157 
0.09012 
0.22147 
0.26248 
0.07075 
0.22568 
0.15109 
0.19842 
0.12147 
0.21207 
0.23539 
0.14924 
0.34758 
0.15277 
0.22777 
0.18665 
0.09651 
0.17679 
0.14235 
0.09313 
0.13623 
0.15768 
0.14652 
0.07481 
0.21409 
0.22217 
0.15311 
0.09855 
0.23763 
0.14905 
0.14665 
0.07700 
0.01873 
0.08198 
0.19262 
0.03667 
0.17326 
0.12856 
0.07336 
0.09219 
0.12812 
0.06510 
0.07343 
0.10678 
0.13115 
0.17167 
0.19723 
0.07003 
0.10523 
0.11489 
0.14310 
0.09918 
0.05100 
0.10329 
0.24333 
0.19653 
0.24002 
0.30294 
0.22756 
0.19538 
0.09937 
0.17134 
0.15082 
0.10223 
0.12975 
0.13549 
0.16743 
0.11681 
0.26335 
0.14867 
0.04508 
0.06052 
0.14719 
0.09659 
0.12607 
0.20676 
0.10343 
0.15473 
0.10701 
0.11821 
0.11555 
0.15747 
0.17392 
0.07114 
0.23028 
0.09884 
0.14428 
0.07981 
0.15523 
0.22258 
0.13431 
0.11641 
0.10734 
0.19949 
0.14436 
0.10511 
0.17868 
0.20053 
0.14348 
0.32277 
0.11376 
0.26082 
0.13647 
0.09793 
0.06363 
0.26484 
0.07167 
0.26046 
0.17625 
0.20446 
0.24134 
0.03587 
0.09747 
0.15846 
0.14473 
0.24820 
0.15704 
0.40370 
0.11407 
0.13213 
0.15874 
0.14004 
0.16139 
0.39570 
0.32321 
0.11717 
0.24053 
0.15942 
0.14413 
0.08703 
0.17279 
0.29243 
0.20799 
0.14041 
0.15630 
0.08134 
0.16905 
0.12500 
0.08249 
0.16719 
0.09901 
0.14756 
0.09956 
0.07209 
0.14540 
0.09598 
0.24010 
0.06852 
0.07468 
0.22269 
0.25741 
0.07790 
0.07365 
0.03664 
0.07046 
0.29900 
0.19301 
0.05613 
0.09472 
0.16858 
0.10485 
0.14114 
0.11042 
0.09039 
0.09946 
0.18674 
0.16278 
0.13574 
0.08835 
0.11229 
0.28186 
0.13591 
0.13092 
0.11659 
0.12588 
0.16998 
0.04344 
0.12526 
0.19426 
0.08892 
0.10586 
0.12828 
0.11419 
0.18289 
0.24597 
0.15381 
0.25593 
0.23524 
0.06823 
0.04776 
0.11945 
0.17899 
0.14367 
0.11405 
0.24975 
0.09426 
0.13490 
0.09568 
0.14011 
0.08903 
0.20378 
0.14976 
0.06071 
0.11470 
0.06720 
0.14751 
0.06943 
0.07544 
0.18205 
0.14530 
0.15610 
0.12121 
0.09279 
0.17399 
0.05329 
0.03520 
0.13211 
0.11955 
0.15213 
0.20704 
0.09418 
0.07273 
0.21671 
0.09917 
0.14332 
0.18375 
0.21729 
0.18515 
0.09291 
0.13818 
0.18457 
0.14116 
0.11743 
0.16797 
0.16229 
0.29205 
0.22822 
0.30229 
0.13542 
0.15742 
0.12838 
0.16939 
0.06778 
0.23742 
0.16035 
0.22698 
0.08239 
0.10504 
0.08719 
0.23188 
0.26138 
0.20681 
0.26694 
0.08636 
0.13721 
0.15939 
0.07258 
0.12432 
0.40209 
0.16961 
0.19128 
0.12289 
0.13936 
0.20379 
0.13201 
0.08604 
0.16718 
0.18053 
0.14460 
0.23112 
0.10221 
0.19027 
0.28933 
0.16627 
0.11207 
0.14938 
0.08170 
0.12399 
0.11180 
0.21753 
0.18040 
0.10201 
0.18916 
0.18983 
0.15258 
0.27350 
0.17696 
0.09931 
0.12494 
0.11170 
0.05224 
0.11015 
0.06902 
0.08085 
0.09267 
0.09753 
0.18538 
0.07497 
0.21817 
0.24669 
0.19094 
0.14492 
0.11838 
0.15841 
0.16917 
0.23522 
0.16290 
0.16308 
0.21206 
0.09885 
0.13985 
0.26635 
0.17421 
0.16972 
0.08637 
0.04983 
0.13491 
0.21528 
0.10491 
0.11019 
0.09857 
0.12014 
0.11680 
0.08469 
0.09812 
0.10946 
0.33808 
0.21111 
0.20651 
0.14370 
0.09219 
0.23128 
0.06850 
0.13475 
0.09242 
0.14830 
0.22156 
0.13001 
0.09398 
0.14317 
0.11518 
0.22895 
0.15632 
0.03790 
0.17820 
0.12479 
0.14961 
0.09509 
0.19253 
0.25083 
0.16337 
0.12026 
0.22218 
0.10541 
0.06747 
0.13080 
0.22993 
0.24299 
0.20544 
0.13182 
0.22642 
0.32653 
0.09905 
0.07607 
0.18814 
0.22399 
0.16993 
0.05968 
0.15942 
0.12106 
0.18492 
0.05420 
0.08658 
0.05174 
0.17140 
0.09020 
0.26654 
0.10916 
0.16671 
0.18345 
0.16413 
0.10536 
0.19922 
0.09173 
0.22616 
0.18130 
0.06922 
0.17323 
0.18931 
0.17990 
0.22691 
0.18710 
0.05408 
0.21951 
0.14150 
0.09471 
0.09092 
0.19688 
0.12151 
0.13655 
0.12802 
0.07592 
0.08534 
0.15629 
0.25232 
0.13731 
0.10969 
0.07678 
0.09109 
0.26458 
0.14174 
0.14758 
0.08035 
0.11617 
0.16215 

 VECTORS Umean float 
-0.00650 0.10850 -0.15550 
-0.02650 0.06700 -0.06100 
-0.00550 0.06650 -0.04050 
0.00850 0.12600 -0.21600 
0.00550 0.02700 -0.10650 
-0.02250 0.04850 -0.12400 
0.16250 0.06100 -0.16200 
-0.00200 0.10400 -0.05750 
0.06200 0.08500 -0.14250 
0.06800 0.10450 -0.01900 
0.05500 0.14100 -0.10000 
0.04650 0.13550 -0.17100 
-0.03350 0.07200 -0.02700 
0.05350 0.10450 -0.11350 
0.10400 0.10750 -0.16400 
0.05450 0.08450 -0.19700 
0.06950 0.04550 -0.01950 
0.00200 0.14250 -0.09100 
-0.03200 0.04600 0.00950 
0.04000 0.10350 -0.12950 
0.05900 0.11350 -0.18350 
0.07000 0.08750 -0.04900 
0.04500 0.08500 -0.17600 
0.02800 0.09500 -0.19300 
0.02850 0.09900 -0.14700 
0.04250 0.09850 -0.14750 
0.07850 0.04750 -0.06250 
0.11550 0.12050 -0.09950 
0.07150 0.17850 -0.11900 
0.08400 0.05700 -0.20050 
-0.01000 0.16250 -0.04950 
-0.04400 0.11900 -0.09950 
0.09750 0.05850 -0.13400 
0.05800 0.07800 -0.27700 
0.08400 0.07100 -0.09150 
-0.00650 0.05900 0.01400 
-0.03900 0.08250 -0.10050 
0.12050 0.21050 -0.18150 
0.06650 -0.11700 0.01200 
-0.05950 0.06950 0.03900 
0.10400 0.07900 -0.16600 
0.06750 0.06650 -0.12350 
0.11950 0.11450 -0.20650 
0.09000 0.14200 -0.14500 
0.05600 0.11900 -0.12650 
0.05850 0.16100 -0.14950 
-0.01300 0.08100 -0.08650 
0.02850 0.09700 -0.21200 
-0.05300 -0.01550 -0.08550 
0.00950 0.07500 -0.18200 
-0.01250 0.10450 -0.09000 
0.04750 0.09350 -0.01950 
0.04200 0.12000 -0.02650 
-0.05050 0.08600 -0.00200 
0.05700 0.13200 -0.17700 
0.04950 -0.01300 -0.02900 
-0.01750 0.06900 -0.07300 
-0.01550 0.12800 -0.13750 
-0.00550 0.08200 -0.01650 
0.05100 0.11800 -0.28550 
0.01450 0.16150 -0.15650 
0.06950 -0.02500 -0.15250 
0.02450 0.10850 -0.09900 
0.04450 0.05650 -0.12800 
0.10900 0.08850 -0.03900 
0.04200 0.04200 -0.15250 
0.01550 0.08750 -0.11300 
0.03050 0.15000 -0.09700 
0.01200 0.09850 -0.05100 
0.03150 0.08300 -0.01550 
0.10550 -0.00950 -0.19450 
0.10100 0.09350 -0.22350 
0.01000 0.00250 -0.07000 
0.11550 0.07450 -0.17900 
0.08750 0.06600 -0.10400 
0.11900 0.06000 -0.14700 
0.06800 0.04700 -0.08900 
0.12700 0.14900 -0.08150 
0.06000 0.14850 -0.17250 
0.02050 0.11650 -0.09100 
0.15200 0.12500 -0.28650 
-0.00900 0.07550 -0.13250 
-0.03400 0.15000 -0.16800 
0.07950 0.03100 -0.16600 
0.01400 0.08500 -0.04350 
0.11600 0.10750 -0.07900 
-0.04250 0.13250 0.03000 
-0.03750 0.05850 -0.06200 
0.11400 0.05750 -0.04750 
0.08250 0.07500 -0.11150 
-0.01850 0.12950 -0.06600 
0.05500 -0.01100 -0.04950 
0.09450 0.06150 -0.18200 
0.08300 0.00600 -0.20600 
0.10400 0.08750 -0.07050 
-0.04300 0.06750 0.05750 
0.09300 0.11500 -0.18600 
0.08750 0.02000 -0.11900 
0.06400 0.08550 -0.10050 
-0.02450 -0.00000 0.07300 
-0.00250 -0.00150 -0.01850 
0.01550 0.08050 -0.00100 
-0.00750 0.04950 -0.18600 
0.01850 0.03050 -0.00850 
0.08700 0.01000 -0.14950 
0.04050 0.08850 -0.08400 
0.05900 -0.04350 0.00300 
0.02200 0.08950 -0.00200 
0.08700 0.06550 -0.06750 
0.05900 -0.02750 0.00050 
-0.04050 0.04100 0.04550 
0.04450 0.08600 -0.04500 
0.06950 0.01950 -0.10950 
0.07550 0.14550 -0.05100 
0.04250 0.06850 -0.18000 
-0.03850 0.05550 -0.01850 
0.05350 0.08650 0.02700 
0.04450 -0.02250 -0.10350 
0.03600 0.07250 -0.11800 
0.07250 0.06450 0.02050 
0.00700 0.03150 -0.03950 
0.08150 0.01350 -0.06200 
0.08100 0.09900 -0.20700 
0.04250 0.09450 -0.16700 
0.12550 0.08300 -0.18700 
0.08500 0.09150 -0.27600 
0.10500 0.07850 -0.18600 
0.13850 0.13450 -0.03000 
0.08200 0.05000 -0.02550 
0.05550 0.09750 -0.12950 
0.00550 0.10250 -0.11050 
-0.05800 0.06950 0.04750 
0.07350 0.05850 -0.08950 
-0.00950 0.13500 0.00650 
0.10650 0.08300 -0.09900 
0.08000 0.01650 -0.08350 
0.14250 0.15100 -0.16200 
-0.03100 -0.11050 -0.09450 
0.02350 0.03400 -0.01800 
0.00250 0.04350 0.04200 
0.03100 0.13600 -0.04700 
-0.05500 0.07900 -0.00800 
-0.02750 0.12300 -0.00300 
0.10050 0.04500 -0.17500 
0.06300 0.05750 -0.05850 
0.03900 0.02850 -0.14700 
0.07450 0.07650 -0.00700 
0.03150 0.08950 -0.07050 
0.06350 0.09400 -0.02200 
0.06450 0.05550 -0.13250 
0.12850 0.10800 -0.04550 
-0.02800 0.05250 -0.03900 
0.01850 0.15200 -0.17200 
0.04950 -0.00300 -0.08550 
0.01250 0.04350 -0.13700 
-0.04550 0.00300 0.06550 
0.08250 0.06000 -0.11700 
0.18650 0.09100 -0.08050 
0.10850 0.07100 -0.03500 
0.01450 -0.00100 -0.11550 
-0.03750 0.06350 -0.07800 
0.07450 0.07650 -0.16850 
0.07800 0.06750 -0.10100 
0.01650 0.06300 -0.08250 
0.09300 -0.00450 -0.15250 
0.05300 0.15400 -0.11700 
0.10050 0.09850 -0.02800 
0.12750 0.09900 -0.27950 
-0.02700 0.10850 -0.02100 
-0.03100 0.13500 -0.22100 
0.07150 0.03450 -0.11100 
-0.04050 0.08700 -0.01950 
-0.04400 -0.01750 0.04250 
0.09600 0.07550 -0.23500 
0.04600 0.05100 -0.02050 
0.10100 0.03150 -0.23800 
0.05050 -0.01700 -0.16800 
0.02850 0.11300 -0.16800 
0.13000 0.14650 -0.14100 
-0.02850 0.02150 -0.00350 
0.06500 -0.03700 -0.06250 
0.00800 0.15650 -0.02350 
0.11900 0.01200 -0.08150 
-0.01950 0.03800 -0.24450 
0.02750 0.15250 -0.02550 
0.16150 0.08950 -0.35900 
0.06050 0.06400 -0.07250 
0.06250 0.10650 -0.04700 
0.06750 0.05900 -0.13100 
0.02000 0.13300 -0.03900 
0.10950 0.02200 -0.11650 
0.20800 0.20500 -0.26700 
0.04950 0.12000 -0.29600 
0.11150 0.03250 -0.01550 
0.07950 0.05400 -0.22050 
0.11350 0.10650 0.03450 
0.12300 0.07500 0.00450 
0.01000 -0.07500 0.04300 
-0.03750 0.12700 -0.11100 
0.14850 0.12000 -0.22150 
0.13400 0.01350 -0.15850 
-0.00100 0.04500 -0.13300 
0.09150 0.10250 -0.07450 
0.04750 0.03800 -0.05400 
0.04300 0.02200 -0.16200 
0.09800 0.06900 0.03550 
-0.06000 0.04150 0.03850 
0.08750 0.07600 -0.12050 
-0.01500 0.09500 -0.02350 
-0.06300 0.04800 0.12450 
0.00100 0.09800 -0.01750 
0.07150 0.00350 -0.00850 
0.09150 0.06700 -0.09100 
0.00550 0.03000 -0.09100 
0.07250 0.18700 -0.13200 
-0.01350 -0.00950 -0.06650 
0.03550 0.03950 -0.05250 
0.05450 0.21550 0.01350 
0.10550 0.02900 -0.23300 
-0.00600 0.06400 0.04400 
0.05550 -0.03950 0.02800 
0.00100 0.00900 -0.03550 
0.05250 0.04400 0.01650 
0.11250 0.03350 -0.27500 
0.04000 0.04450 -0.18350 
0.03650 -0.00350 -0.04250 
0.03100 -0.00100 -0.08950 
0.06900 0.08300 -0.12950 
0.07450 0.04150 -0.06100 
0.09050 0.08700 -0.06450 
0.10200 -0.00500 -0.04200 
-0.03150 0.04300 -0.07300 
0.02850 0.04500 0.08400 
0.09250 0.13150 -0.09500 
0.03050 0.06950 -0.14400 
0.10300 0.04600 -0.07550 
0.04150 -0.00050 -0.07800 
-0.01150 0.10800 -0.02850 
0.20000 0.13300 -0.14750 
0.02250 0.13400 0.00300 
0.01050 0.12700 -0.03000 
0.08100 0.01200 -0.08300 
0.08150 0.09450 -0.01650 
0.13550 0.04650 -0.09150 
-0.00950 -0.01250 -0.04050 
0.02050 0.11300 -0.05000 
0.09150 0.12750 -0.11450 
0.01600 0.01300 -0.08650 
-0.01000 0.05050 -0.09250 
0.04650 0.00350 -0.11950 
0.08200 0.04500 -0.06550 
0.04750 0.16300 -0.06800 
0.10100 0.14150 -0.17400 
0.11950 -0.04450 -0.08600 
0.04250 0.10050 -0.23150 
0.11050 0.14150 -0.15200 
0.05850 -0.00650 -0.03450 
-0.02450 0.04100 -0.00000 
-0.08900 0.02950 0.07400 
-0.00250 -0.07050 0.16450 
0.10500 -0.02000 -0.09600 
0.07400 0.01750 -0.08500 
0.15600 0.09100 -0.17250 
-0.04500 0.08050 -0.01950 
0.10800 0.02300 -0.07750 
0.02250 -0.00050 -0.09300 
0.09400 0.01700 -0.10250 
0.06750 -0.00800 -0.05750 
0.06000 0.14500 -0.13000 
0.04400 0.13700 -0.04150 
0.00500 0.04450 -0.04100 
0.04800 0.02550 -0.10100 
-0.00800 0.05650 -0.03550 
0.10200 0.10650 0.00350 
-0.00850 0.06850 0.00750 
0.01650 0.07350 -0.00400 
0.16050 0.04100 -0.07550 
0.04200 0.11650 -0.07600 
0.08650 -0.03550 -0.12500 
0.07350 0.07250 0.06350 
-0.02350 0.02400 -0.08650 
-0.03100 0.03300 -0.16800 
-0.00200 0.05200 0.01150 
0.00150 0.01750 -0.03050 
0.11700 0.06100 0.00650 
0.09300 0.04950 -0.05650 
0.13650 0.05850 -0.03300 
0.06850 0.15300 -0.12150 
0.03950 0.07300 0.04450 
-0.02850 0.06600 -0.01100 
0.09700 0.08000 -0.17650 
0.05700 -0.00500 -0.08100 
0.09800 -0.01500 -0.10350 
-0.04750 0.09250 -0.15150 
-0.00450 0.08600 -0.19950 
0.08900 0.02450 -0.16050 
-0.00450 0.08350 -0.04050 
0.06350 0.08900 -0.08450 
0.07200 0.07500 -0.15250 
0.00450 0.14100 0.00500 
0.06100 -0.06250 -0.07850 
0.01150 0.09650 -0.13700 
0.09650 0.09050 -0.09400 
0.15450 -0.10500 -0.22450 
0.10600 0.14950 -0.13600 
0.09450 0.13200 -0.25500 
0.08000 0.03350 -0.10400 
0.07800 0.11300 -0.07700 
0.01500 0.11550 -0.05400 
0.08300 0.04050 -0.14200 
0.06100 0.02450 0.01650 
0.12350 0.05900 -0.19400 
0.04800 0.13500 -0.07200 
0.10700 0.10650 -0.16950 
0.01500 -0.00150 -0.08100 
-0.07200 0.05100 0.05700 
0.03450 0.07250 0.03400 
0.08300 0.00250 -0.21650 
0.08600 0.08000 -0.23350 
-0.01450 0.15600 -0.13500 
0.07600 0.09400 -0.23800 
0.07950 0.02600 -0.02150 
0.11250 -0.04950 -0.06100 
0.13000 0.09150 -0.01150 
-0.02650 0.06600 -0.01450 
0.01250 0.11400 -0.04800 
0.22300 0.10250 -0.31850 
0.00150 0.09350 -0.14150 
0.09650 0.15500 -0.05700 
-0.00900 0.04100 -0.11550 
0.06350 0.00350 -0.12400 
0.11050 0.02050 -0.17000 
0.04950 0.08900 -0.08400 
-0.04700 0.03500 0.06300 
0.11050 0.06550 -0.10700 
0.02050 0.17450 0.04150 
0.07650 0.10500 -0.06350 
0.03300 0.16050 -0.16300 
0.08900 0.04300 -0.02600 
0.08850 0.16100 -0.04950 
0.10000 0.16250 -0.21750 
0.00200 0.03950 -0.16150 
0.06350 0.04150 -0.08250 
-0.01150 -0.05350 -0.13900 
0.06350 -0.03100 -0.04100 
0.10250 0.05750 0.03950 
0.04700 -0.02800 -0.09750 
0.09950 0.05650 -0.18500 
0.15850 0.08600 0.00500 
-0.09100 -0.03700 -0.02750 
0.15700 0.10350 -0.02050 
-0.01600 0.13500 -0.13250 
0.10650 0.10400 0.03350 
0.11850 -0.00000 -0.24650 
0.02350 0.11550 -0.13200 
0.01700 0.07650 0.06100 
0.08200 0.00700 -0.09400 
0.08400 0.02700 -0.06850 
0.02200 0.03300 -0.03400 
0.04050 0.04400 -0.09250 
0.06400 0.01900 -0.01750 
0.00750 -0.03500 -0.07250 
0.07250 0.03850 -0.04300 
0.09000 0.03150 -0.02050 
0.12650 0.11750 0.06750 
-0.03800 0.02850 -0.05800 
0.07900 0.02350 -0.20200 
0.13900 0.02300 -0.20250 
0.00400 0.09600 -0.16500 
0.02150 0.10550 -0.09700 
-0.06050 0.09050 0.04650 
0.01900 0.12300 -0.09800 
0.03800 0.15800 -0.04700 
0.11600 0.08850 -0.18450 
0.02900 0.11800 -0.10850 
0.00700 -0.02150 -0.16150 
0.10400 0.11200 -0.14700 
-0.02250 0.08400 -0.04700 
0.07250 0.00450 -0.11950 
0.12150 0.14500 -0.18750 
-0.00300 0.09500 -0.14600 
0.06800 0.12500 -0.09250 
-0.02650 0.06600 -0.04900 
-0.04700 0.01500 0.00700 
0.11900 0.06200 -0.01400 