# vtk DataFile Version 2.0 
Xm, Ym, Zm, Uvecs, timestep 10014 
ASCII 
 
DATASET POLYDATA POINTS 522 float 
  6.230  12.054 -72.172 
 -5.552   1.219 -71.978 
 -4.857  -4.443 -71.221 
 -2.684   4.996 -70.190 
 -1.968  -7.496 -72.209 
 -3.450   4.736 -69.936 
 -5.929   3.648 -72.087 
  0.568  -6.708 -71.394 
-11.348  -3.285 -71.165 
 -3.481   2.400 -73.560 
 -7.133   5.473 -71.594 
  5.463   3.017 -72.680 
-15.528  -3.500 -74.586 
  6.043 -10.433 -74.183 
 11.110   6.279 -70.207 
  2.363   0.393 -74.840 
 -2.034   6.860 -70.192 
 -9.832  -2.729 -74.932 
  6.545   4.835 -69.036 
  3.144  -5.367 -73.884 
  3.980   4.474 -67.517 
  2.065   6.412 -71.033 
 -3.806  -9.277 -71.258 
  0.039   5.663 -68.421 
 11.308   1.894 -69.753 
 -3.196 -11.817 -68.787 
  0.676   4.169 -68.011 
 -0.725   9.422 -69.576 
  5.825   4.143 -70.677 
 -5.561  -3.638 -75.277 
 -0.927  10.319 -67.336 
 -5.422   8.762 -71.462 
-12.247  11.980 -73.378 
  2.593  -3.460 -72.014 
 -1.944   8.941 -70.541 
 -1.285  -0.542 -72.529 
 -4.735  12.322 -69.368 
 -1.194  -0.262 -67.842 
 -6.179  -3.856 -70.731 
  2.030  -0.792 -75.407 
 -6.739   9.285 -67.365 
 -4.179  11.003 -69.131 
 -3.527   8.798 -70.147 
 -6.505   8.128 -70.591 
  3.882   1.716 -71.207 
-11.483  -8.719 -70.109 
 -9.540  -4.574 -68.883 
 12.864   6.152 -67.616 
-12.915   6.157 -72.394 
 -6.973  -3.419 -69.740 
-11.304  -2.027 -71.786 
  6.505  10.012 -70.341 
 -1.099   0.003 -64.190 
 -6.058  -2.221 -73.125 
 -5.708  -7.878 -71.563 
  1.982  -5.797 -66.948 
 -0.014  -9.063 -67.681 
  4.774   1.902 -65.668 
 -2.802  -3.759 -75.917 
-11.845   0.685 -66.776 
  5.405   1.207 -67.113 
 -5.749  -0.672 -71.841 
 -0.367   4.068 -63.155 
 -5.142  -7.773 -70.981 
 11.624  -3.527 -69.440 
 -2.907  -1.647 -66.456 
 -3.944   0.846 -68.695 
 10.741  -4.739 -67.404 
 -4.935  -3.684 -72.031 
  8.318  10.261 -66.046 
 -6.508  11.179 -70.766 
 14.651  11.323 -68.891 
  5.013  10.705 -66.569 
 -3.898  -5.005 -65.979 
 14.924   0.904 -71.108 
 -3.938   2.780 -67.696 
 -7.977  -2.623 -65.297 
  3.944   0.399 -69.660 
 -2.300   5.811 -60.770 
 16.496   7.400 -68.817 
 -1.335  12.022 -70.618 
 -5.450   1.530 -64.053 
 -7.424  13.250 -66.721 
 10.826   0.248 -72.537 
  9.873   7.986 -73.537 
 -9.965   4.578 -67.901 
  6.373  -1.228 -66.255 
 -7.836   7.742 -66.308 
 -9.694  -0.034 -64.503 
  7.103   0.097 -66.638 
 -9.431   1.510 -71.958 
 -9.822   3.255 -69.482 
  4.543   3.292 -69.047 
  2.442   1.668 -71.510 
 -8.262  -5.282 -69.987 
 -6.043   0.767 -63.890 
 -3.330  10.816 -75.096 
  5.580 -13.026 -66.562 
  3.820  11.217 -72.133 
  9.996   3.071 -72.615 
 13.652  -0.836 -68.047 
  7.756  -5.043 -66.567 
  6.133  11.831 -66.153 
-12.413  -6.540 -69.184 
 -6.216  -5.455 -68.393 
 -4.711   1.340 -65.294 
 -0.251   8.852 -66.072 
 -8.009  -9.513 -67.615 
 -0.063  -3.224 -64.989 
-12.697   1.870 -69.524 
 -7.724  11.727 -70.870 
  0.166   0.304 -67.253 
  9.600  -7.128 -67.837 
 -8.782   2.236 -65.646 
  5.505   1.506 -72.704 
-10.665   6.925 -71.028 
 -0.743   2.857 -66.822 
-12.118  10.254 -74.500 
 10.221  -6.739 -69.092 
  8.591  12.805 -68.346 
 -9.353  10.736 -62.924 
-11.197  -0.942 -69.643 
 10.366   9.392 -67.099 
-11.419   4.079 -67.885 
  2.408   9.509 -71.067 
 15.330   2.598 -72.150 
  4.260  -7.963 -69.448 
 10.155  -9.976 -67.798 
  3.804   2.652 -65.258 
 -8.244   2.093 -63.459 
  1.444   0.542 -66.779 
  3.559   9.105 -70.891 
 -0.885   7.735 -67.954 
 -5.878  -1.510 -65.378 
 -5.724  -7.844 -65.969 
  5.365  -3.958 -71.344 
 -7.332   9.871 -72.023 
  5.383   7.783 -66.059 
  9.766  -1.310 -68.401 
 -1.598   8.447 -61.549 
-12.422  10.585 -66.167 
 13.417  -2.714 -64.430 
-12.415   9.232 -69.999 
-11.087 -11.392 -69.958 
  3.436 -11.261 -71.272 
 -3.508  10.691 -65.416 
  3.645   5.845 -65.302 
  5.613  12.080 -71.629 
 13.183   3.398 -69.952 
 17.344   1.454 -69.381 
 -2.867  -5.713 -69.330 
 -9.699 -11.323 -72.313 
 10.199  -8.297 -68.380 
  8.265  -1.621 -72.526 
 -7.280   9.647 -73.780 
 -2.149 -11.714 -74.475 
 13.556   8.825 -66.995 
 -2.418  -3.289 -68.096 
 -7.155   2.091 -64.733 
  1.235  -6.903 -62.641 
  6.702  -5.559 -68.968 
  6.993 -11.744 -64.494 
  1.149   6.537 -74.874 
  0.677  -3.409 -65.049 
 -4.239   8.049 -60.797 
  9.798   6.293 -63.880 
-10.602   3.225 -66.938 
-10.695  -4.525 -63.421 
-10.443  -5.413 -68.977 
  8.108   6.373 -66.067 
 11.497  -6.905 -70.596 
  8.334   6.492 -74.459 
  5.521  -6.046 -65.703 
 10.803   3.633 -67.265 
 -6.232   6.457 -74.734 
  4.038   6.778 -71.602 
 -4.409  -8.474 -71.850 
  5.042  -2.557 -70.403 
 -5.906   0.821 -65.938 
  6.197  12.601 -66.990 
  4.473  10.998 -71.501 
-12.330  -4.995 -75.532 
  9.221  -0.321 -65.345 
  2.938 -12.079 -69.846 
  5.447   9.162 -72.070 
-10.408   4.463 -66.755 
 13.597  -7.792 -70.151 
  6.923  -6.927 -69.148 
  4.465  -5.668 -66.473 
-10.392   9.244 -64.286 
 -6.383  -3.022 -63.480 
-13.537  -4.599 -70.668 
 -7.896   4.296 -73.619 
  0.567   4.795 -62.803 
  1.517  -0.172 -66.205 
 -0.380   1.918 -72.912 
  3.740   8.500 -71.126 
-11.300  -6.412 -73.694 
-10.573  -9.260 -72.329 
  9.154  -0.646 -63.891 
-15.314   9.153 -78.180 
  0.544   2.176 -66.502 
  8.450 -10.212 -68.783 
 -7.012   3.923 -61.142 
  2.681  13.157 -66.007 
-11.020  10.125 -70.786 
  5.343  -0.647 -73.206 
  6.818 -10.489 -73.734 
-11.691  -1.621 -75.207 
  7.524 -11.143 -69.013 
  5.144   5.127 -63.133 
 11.343  -4.241 -66.620 
 -0.831   8.698 -68.689 
  7.170  -3.485 -67.827 
  1.957   5.017 -69.540 
  6.439  -4.646 -63.232 
 12.371  -6.637 -69.620 
 -8.546   8.047 -75.412 
 -0.894  10.489 -71.428 
-11.093   4.028 -70.032 
 -1.341   1.625 -64.341 
 -9.997   0.301 -67.236 
  6.289  -5.280 -68.661 
  0.341   3.828 -60.216 
 16.702   0.393 -68.450 
-11.603   0.763 -71.734 
  1.663   7.536 -70.788 
  6.377   1.518 -62.635 
  8.012  -1.793 -62.178 
 -4.860   4.492 -73.500 
-12.828   2.707 -63.847 
 -3.215  11.593 -64.019 
  2.636  -4.229 -64.031 
 14.058   1.450 -70.647 
  1.559   6.793 -63.227 
  5.684  -2.917 -75.449 
  7.845   1.190 -65.371 
  3.521  -2.472 -63.006 
  6.226   5.616 -68.146 
  3.033  -9.137 -68.282 
 12.997  -2.518 -68.378 
 -8.976   8.043 -72.020 
  3.973  -9.257 -64.249 
-12.869   5.867 -70.439 
-14.607   4.225 -75.289 
 11.001   4.235 -72.203 
 -4.507  -2.375 -68.011 
 16.222  -6.295 -73.917 
 -5.714  -9.598 -73.241 
-15.008  -9.927 -70.737 
-11.764  -9.224 -65.561 
 11.575   2.927 -66.702 
  9.084  -9.765 -70.862 
 14.649  -0.313 -68.059 
 -4.654   8.538 -67.851 
 -6.379  -0.678 -70.691 
-13.160 -11.760 -73.067 
 11.918   3.139 -68.743 
-15.091   4.462 -72.174 
 -8.114  10.721 -64.118 
  1.656  -8.005 -66.403 
  0.658   8.104 -74.739 
 -9.527  -1.191 -61.901 
 -5.261 -12.056 -74.701 
  5.005  -8.439 -76.072 
  4.305   7.030 -76.405 
 10.396 -10.529 -71.651 
  3.278  -9.284 -72.954 
 13.839  -7.500 -74.668 
 -8.271   1.039 -66.805 
 -1.023  -5.466 -66.688 
 -3.573   8.993 -60.681 
 16.301  -0.518 -68.126 
 12.713  -9.710 -71.934 
  8.241   9.149 -66.047 
 10.443   3.111 -66.007 
 -4.061  10.019 -69.734 
 10.928  -4.601 -68.997 
 -9.336  -5.976 -69.027 
 10.569   5.282 -65.258 
  7.537  -4.974 -69.773 
 16.722  11.034 -70.322 
 -8.488 -11.852 -69.549 
 -2.093   4.971 -68.567 
 -3.226  -8.849 -62.192 
 13.854  12.279 -70.477 
-13.797   7.361 -68.745 
  8.864  -5.686 -71.418 
 -2.619  -1.771 -71.999 
 -1.985   9.778 -67.826 
  9.436   3.502 -72.290 
  8.311   1.249 -64.169 
  5.986   3.650 -61.863 
 -0.748 -12.207 -68.124 
 11.522   5.413 -72.511 
  0.913   0.841 -60.165 
-11.451 -10.410 -72.751 
 -5.321  10.765 -75.228 
 -2.319  10.633 -64.621 
-13.844   5.991 -70.313 
 -8.100   8.252 -71.201 
  8.774 -10.719 -68.120 
-11.087  -7.510 -71.310 
-15.354   3.014 -70.831 
-10.793  12.666 -62.962 
 -2.506   6.419 -77.419 
  7.867  -5.817 -73.025 
 -5.843   6.431 -65.260 
 13.488  10.003 -74.412 
 -7.019   9.764 -63.178 
  5.508   3.591 -57.776 
-12.662 -11.253 -70.000 
  1.824  -3.155 -74.624 
  0.062  -3.506 -71.463 
 14.743 -12.462 -69.488 
 12.968  12.495 -72.303 
 -0.451 -11.137 -74.859 
-13.815   6.888 -67.207 
 14.535  -7.790 -66.506 
 -2.231  -9.334 -66.218 
  8.479  -0.124 -75.519 
-13.019  12.168 -68.083 
-11.045  -2.561 -71.430 
 12.907  11.408 -66.660 
 16.316  -2.178 -71.547 
  9.223  11.250 -66.045 
-11.352  -3.847 -74.029 
 10.497  -7.140 -69.459 
-15.180   5.659 -72.144 
 -6.268   0.174 -72.685 
 -8.574   4.660 -63.603 
  6.292   4.591 -77.025 
 12.819  10.486 -65.120 
 15.952  -7.364 -71.388 
 12.564  -4.742 -74.472 
 12.803  -9.876 -67.470 
 -3.290 -11.267 -70.538 
  4.005   9.815 -65.869 
  6.058  -3.558 -62.090 
 -2.522   6.864 -72.601 
 12.818   0.439 -68.502 
  0.226  12.967 -66.860 
  2.605   4.035 -76.078 
 12.853   4.212 -68.054 
 -1.688   8.444 -74.987 
 11.618  10.884 -67.846 
  1.025   3.835 -64.060 
 16.611  -9.591 -68.901 
  4.154  -7.492 -74.564 
  1.986  -4.246 -72.401 
  6.808  -1.486 -71.588 
 -8.303   1.816 -75.397 
 -2.487   4.594 -62.925 
-12.797   6.401 -68.327 
  9.428   8.732 -65.703 
 10.396  -0.471 -65.108 
 10.591  -8.982 -65.713 
 -4.893   3.990 -70.047 
 -2.397  -4.296 -70.759 
  5.550   9.259 -76.844 
 -1.080  -3.051 -72.953 
 -0.867  -7.997 -74.046 
-13.992  -1.742 -72.704 
 -9.480 -11.072 -69.370 
  2.186  11.986 -68.261 
  5.928  12.614 -72.240 
 -6.686  11.720 -63.479 
 11.115  -2.293 -73.794 
  1.132  10.841 -63.937 
 -4.288  -3.155 -59.767 
 -7.517 -10.079 -68.469 
  7.033   8.611 -66.853 
 -8.216  -8.766 -67.322 
 15.727  11.345 -69.997 
  4.128   0.065 -64.502 
  1.767  11.550 -68.372 
  9.198  12.488 -65.523 
 -3.503 -11.576 -67.864 
-12.137   5.653 -63.671 
 12.324  -4.850 -71.730 
  4.752 -12.207 -66.227 
  7.502   8.540 -53.933 
 10.274  -1.417 -70.896 
  4.456  -8.807 -64.715 
  3.519  -5.123 -62.177 
 -1.813 -12.645 -64.127 
-12.058  10.805 -65.213 
 -7.895 -12.076 -65.909 
 -3.224   9.896 -59.738 
  8.358   8.942 -68.787 
  5.960  -7.713 -67.727 
  7.021   9.891 -75.168 
 -0.919   4.466 -61.029 
-11.026   1.451 -62.689 
 -8.613   1.317 -74.957 
  4.040   0.061 -61.685 
  9.683  -9.961 -62.557 
 -8.857   6.313 -74.818 
 -2.062   5.468 -76.401 
 17.128  -2.420 -74.111 
-12.837  -1.374 -69.841 
-12.628  -6.149 -65.737 
 -2.383 -12.383 -73.293 
  0.428  10.195 -74.993 
-14.575  -4.326 -73.316 
 13.870  -8.942 -73.954 
-15.429  -2.650 -77.530 
 12.321  12.579 -64.275 
 -3.700 -10.404 -62.464 
-11.922   8.035 -64.701 
 -3.102   3.571 -70.175 
  6.370  11.406 -65.200 
 -4.008  -1.280 -70.552 
 -8.283  -2.163 -62.396 
 -2.945  -9.416 -61.840 
 14.177   0.024 -72.832 
  3.123   3.425 -61.727 
 14.488  -8.279 -70.898 
 -4.075   2.880 -61.455 
  5.567   7.461 -60.567 
 12.422  -0.072 -74.523 
  1.398  -7.293 -71.322 
-11.966   5.511 -73.662 
-13.064  -0.342 -68.621 
 -3.374  -1.605 -73.150 
 11.478 -13.227 -70.848 
 14.361  11.501 -70.070 
  8.770 -12.708 -67.386 
  8.991  -7.606 -72.790 
 11.068   7.805 -69.975 
 -4.255   7.361 -56.625 
 10.519  -2.664 -63.947 
 -9.611  -7.491 -73.005 
  7.090   7.183 -61.335 
  9.781  -7.532 -58.587 
-12.111  -9.258 -73.687 
 -3.901   1.165 -58.283 
  5.848  11.474 -68.575 
  7.466 -12.067 -73.160 
 -7.074   0.816 -63.604 
 14.488 -12.390 -66.133 
  3.360  11.297 -62.471 
  8.575  10.159 -66.820 
  7.453   2.277 -70.564 
-13.093  -8.954 -66.773 
  4.096  12.350 -72.435 
 13.333  -6.713 -65.232 
  9.938  13.195 -64.040 
 -6.130  10.088 -71.397 
  9.148   8.430 -70.193 
 16.596  -0.672 -69.930 
-13.735  -2.888 -72.632 
 10.640  -2.094 -73.959 
 12.250  -8.403 -74.435 
-15.470  -5.111 -69.432 
  8.104  -1.371 -76.239 
 -4.059  10.631 -76.776 
 10.700  -0.240 -62.712 
  9.701  -5.192 -74.130 
  1.407   2.649 -68.869 
 -3.428  -5.737 -72.516 
 11.886  -3.709 -62.293 
 -9.461 -10.293 -74.733 
 17.342  -6.329 -67.367 
  5.851  -6.078 -61.400 
 -7.573  -6.278 -70.854 
 -1.141   4.896 -64.843 
-15.360  -8.604 -69.334 
 -7.854   7.137 -73.124 
 11.479  11.237 -72.668 
 16.633 -11.633 -68.960 
 -5.447   5.714 -72.477 
  7.314 -12.767 -65.651 
 12.917  11.093 -66.603 
 -8.700   5.093 -69.433 
-14.897  -3.109 -74.903 
-13.199   2.376 -72.322 
-13.513  -7.526 -75.782 
 14.845  -4.624 -60.978 
 -8.245  -3.079 -72.097 
-11.060  12.628 -67.556 
  6.420  -9.436 -63.389 
  4.901   0.524 -61.628 
 13.006   4.097 -62.186 
-14.079  -8.372 -71.124 
 10.102  -0.958 -68.779 
 -4.957  -2.992 -71.907 
  9.733  -7.853 -65.239 
 -4.509   6.045 -68.096 
 -1.417   4.157 -77.651 
 -3.516   8.743 -65.904 
 12.615   3.382 -69.490 
 -7.762   8.448 -73.725 
-15.221   5.368 -69.612 
-12.250   7.035 -69.010 
 -8.970  -2.899 -65.445 
-13.170 -10.209 -67.730 
 12.269  -6.987 -71.270 
  5.637  -4.100 -67.393 
-14.998   2.774 -68.037 
 -0.590   9.246 -67.526 
 -7.362  11.330 -74.401 
  1.780  -7.503 -69.882 
 -4.847 -10.256 -62.735 
  4.559  -0.184 -65.800 
 -8.095  -9.907 -57.816 
  1.306   0.100 -58.429 
 15.607   5.765 -73.263 
 -9.925  -2.899 -68.125 
 16.935   0.364 -73.017 
 11.740  -6.223 -73.244 
 -9.161   3.559 -75.793 
 17.534  -4.732 -72.963 
  9.918 -12.068 -67.331 
  5.007   1.536 -65.512 
 11.966  10.961 -75.709 
  5.192   9.585 -72.833 
 -4.542   4.168 -75.299 
 -3.119  -8.038 -75.537 
-13.868   1.185 -76.371 
-13.259   2.790 -77.502 
 16.962  -3.777 -65.035 

 VERTICES 522 1044 
1 0 
1 1 
1 2 
1 3 
1 4 
1 5 
1 6 
1 7 
1 8 
1 9 
1 10 
1 11 
1 12 
1 13 
1 14 
1 15 
1 16 
1 17 
1 18 
1 19 
1 20 
1 21 
1 22 
1 23 
1 24 
1 25 
1 26 
1 27 
1 28 
1 29 
1 30 
1 31 
1 32 
1 33 
1 34 
1 35 
1 36 
1 37 
1 38 
1 39 
1 40 
1 41 
1 42 
1 43 
1 44 
1 45 
1 46 
1 47 
1 48 
1 49 
1 50 
1 51 
1 52 
1 53 
1 54 
1 55 
1 56 
1 57 
1 58 
1 59 
1 60 
1 61 
1 62 
1 63 
1 64 
1 65 
1 66 
1 67 
1 68 
1 69 
1 70 
1 71 
1 72 
1 73 
1 74 
1 75 
1 76 
1 77 
1 78 
1 79 
1 80 
1 81 
1 82 
1 83 
1 84 
1 85 
1 86 
1 87 
1 88 
1 89 
1 90 
1 91 
1 92 
1 93 
1 94 
1 95 
1 96 
1 97 
1 98 
1 99 
1 100 
1 101 
1 102 
1 103 
1 104 
1 105 
1 106 
1 107 
1 108 
1 109 
1 110 
1 111 
1 112 
1 113 
1 114 
1 115 
1 116 
1 117 
1 118 
1 119 
1 120 
1 121 
1 122 
1 123 
1 124 
1 125 
1 126 
1 127 
1 128 
1 129 
1 130 
1 131 
1 132 
1 133 
1 134 
1 135 
1 136 
1 137 
1 138 
1 139 
1 140 
1 141 
1 142 
1 143 
1 144 
1 145 
1 146 
1 147 
1 148 
1 149 
1 150 
1 151 
1 152 
1 153 
1 154 
1 155 
1 156 
1 157 
1 158 
1 159 
1 160 
1 161 
1 162 
1 163 
1 164 
1 165 
1 166 
1 167 
1 168 
1 169 
1 170 
1 171 
1 172 
1 173 
1 174 
1 175 
1 176 
1 177 
1 178 
1 179 
1 180 
1 181 
1 182 
1 183 
1 184 
1 185 
1 186 
1 187 
1 188 
1 189 
1 190 
1 191 
1 192 
1 193 
1 194 
1 195 
1 196 
1 197 
1 198 
1 199 
1 200 
1 201 
1 202 
1 203 
1 204 
1 205 
1 206 
1 207 
1 208 
1 209 
1 210 
1 211 
1 212 
1 213 
1 214 
1 215 
1 216 
1 217 
1 218 
1 219 
1 220 
1 221 
1 222 
1 223 
1 224 
1 225 
1 226 
1 227 
1 228 
1 229 
1 230 
1 231 
1 232 
1 233 
1 234 
1 235 
1 236 
1 237 
1 238 
1 239 
1 240 
1 241 
1 242 
1 243 
1 244 
1 245 
1 246 
1 247 
1 248 
1 249 
1 250 
1 251 
1 252 
1 253 
1 254 
1 255 
1 256 
1 257 
1 258 
1 259 
1 260 
1 261 
1 262 
1 263 
1 264 
1 265 
1 266 
1 267 
1 268 
1 269 
1 270 
1 271 
1 272 
1 273 
1 274 
1 275 
1 276 
1 277 
1 278 
1 279 
1 280 
1 281 
1 282 
1 283 
1 284 
1 285 
1 286 
1 287 
1 288 
1 289 
1 290 
1 291 
1 292 
1 293 
1 294 
1 295 
1 296 
1 297 
1 298 
1 299 
1 300 
1 301 
1 302 
1 303 
1 304 
1 305 
1 306 
1 307 
1 308 
1 309 
1 310 
1 311 
1 312 
1 313 
1 314 
1 315 
1 316 
1 317 
1 318 
1 319 
1 320 
1 321 
1 322 
1 323 
1 324 
1 325 
1 326 
1 327 
1 328 
1 329 
1 330 
1 331 
1 332 
1 333 
1 334 
1 335 
1 336 
1 337 
1 338 
1 339 
1 340 
1 341 
1 342 
1 343 
1 344 
1 345 
1 346 
1 347 
1 348 
1 349 
1 350 
1 351 
1 352 
1 353 
1 354 
1 355 
1 356 
1 357 
1 358 
1 359 
1 360 
1 361 
1 362 
1 363 
1 364 
1 365 
1 366 
1 367 
1 368 
1 369 
1 370 
1 371 
1 372 
1 373 
1 374 
1 375 
1 376 
1 377 
1 378 
1 379 
1 380 
1 381 
1 382 
1 383 
1 384 
1 385 
1 386 
1 387 
1 388 
1 389 
1 390 
1 391 
1 392 
1 393 
1 394 
1 395 
1 396 
1 397 
1 398 
1 399 
1 400 
1 401 
1 402 
1 403 
1 404 
1 405 
1 406 
1 407 
1 408 
1 409 
1 410 
1 411 
1 412 
1 413 
1 414 
1 415 
1 416 
1 417 
1 418 
1 419 
1 420 
1 421 
1 422 
1 423 
1 424 
1 425 
1 426 
1 427 
1 428 
1 429 
1 430 
1 431 
1 432 
1 433 
1 434 
1 435 
1 436 
1 437 
1 438 
1 439 
1 440 
1 441 
1 442 
1 443 
1 444 
1 445 
1 446 
1 447 
1 448 
1 449 
1 450 
1 451 
1 452 
1 453 
1 454 
1 455 
1 456 
1 457 
1 458 
1 459 
1 460 
1 461 
1 462 
1 463 
1 464 
1 465 
1 466 
1 467 
1 468 
1 469 
1 470 
1 471 
1 472 
1 473 
1 474 
1 475 
1 476 
1 477 
1 478 
1 479 
1 480 
1 481 
1 482 
1 483 
1 484 
1 485 
1 486 
1 487 
1 488 
1 489 
1 490 
1 491 
1 492 
1 493 
1 494 
1 495 
1 496 
1 497 
1 498 
1 499 
1 500 
1 501 
1 502 
1 503 
1 504 
1 505 
1 506 
1 507 
1 508 
1 509 
1 510 
1 511 
1 512 
1 513 
1 514 
1 515 
1 516 
1 517 
1 518 
1 519 
1 520 
1 521 
POINT_DATA 522 
SCALARS MeanU double 1 
LOOKUP_TABLE default
0.10082 
0.08226 
0.06311 
0.09960 
0.07933 
0.08545 
0.08034 
0.02451 
0.07749 
0.08743 
0.04680 
0.12795 
0.11010 
0.02692 
0.09202 
0.08147 
0.11649 
0.06338 
0.09955 
0.08551 
0.08240 
0.05903 
0.08906 
0.09812 
0.09707 
0.12623 
0.07630 
0.05703 
0.12470 
0.10869 
0.07035 
0.15250 
0.03282 
0.02435 
0.16672 
0.08524 
0.05096 
0.12810 
0.08790 
0.09753 
0.11437 
0.13315 
0.12248 
0.07353 
0.09563 
0.16079 
0.14937 
0.13359 
0.09238 
0.06314 
0.07227 
0.12657 
0.09491 
0.10267 
0.08437 
0.15830 
0.16638 
0.05832 
0.08344 
0.08902 
0.03279 
0.06352 
0.07410 
0.08549 
0.04474 
0.13973 
0.18138 
0.09174 
0.07205 
0.09297 
0.08025 
0.13300 
0.07330 
0.18386 
0.08473 
0.11711 
0.09814 
0.13599 
0.12681 
0.06539 
0.18393 
0.18678 
0.11388 
0.08967 
0.11857 
0.07063 
0.07852 
0.12630 
0.17799 
0.03708 
0.05952 
0.07975 
0.06496 
0.16159 
0.05496 
0.19534 
0.08817 
0.08918 
0.07631 
0.10284 
0.06432 
0.06492 
0.08521 
0.09553 
0.14957 
0.13104 
0.08748 
0.16489 
0.14840 
0.02201 
0.06123 
0.10804 
0.11165 
0.11198 
0.08332 
0.03204 
0.08753 
0.04724 
0.02145 
0.10254 
0.07702 
0.02169 
0.10336 
0.05275 
0.06903 
0.07289 
0.05845 
0.11594 
0.11877 
0.12732 
0.09748 
0.11170 
0.11544 
0.15974 
0.15757 
0.08095 
0.05712 
0.10464 
0.05173 
0.12949 
0.03813 
0.10739 
0.04605 
0.20301 
0.04229 
0.11083 
0.07387 
0.08595 
0.12675 
0.04457 
0.15800 
0.18711 
0.09360 
0.09135 
0.06403 
0.05352 
0.12649 
0.10865 
0.17363 
0.14669 
0.00709 
0.12868 
0.04026 
0.12883 
0.21031 
0.15498 
0.03863 
0.05244 
0.12254 
0.08722 
0.02295 
0.08439 
0.10229 
0.05287 
0.02416 
0.07121 
0.05945 
0.08624 
0.17192 
0.15944 
0.09012 
0.08245 
0.06562 
0.03537 
0.10429 
0.03863 
0.07188 
0.02411 
0.09139 
0.06369 
0.12877 
0.05159 
0.05548 
0.09829 
0.08909 
0.09727 
0.04562 
0.04262 
0.19888 
0.08480 
0.04583 
0.07256 
0.08743 
0.08936 
0.09087 
0.04105 
0.07510 
0.06521 
0.03197 
0.02680 
0.06356 
0.10509 
0.10808 
0.15225 
0.09657 
0.11552 
0.07730 
0.05157 
0.10598 
0.04527 
0.12297 
0.06389 
0.06476 
0.08058 
0.09059 
0.06155 
0.05184 
0.08483 
0.16672 
0.07959 
0.08006 
0.23813 
0.09160 
0.06804 
0.12788 
0.09891 
0.06168 
0.10316 
0.12295 
0.05102 
0.05035 
0.05787 
0.16686 
0.08351 
0.06980 
0.10028 
0.14589 
0.09309 
0.03725 
0.11663 
0.14076 
0.12337 
0.06755 
0.10766 
0.12504 
0.02640 
0.07971 
0.08986 
0.09011 
0.16286 
0.15741 
0.10685 
0.15451 
0.14465 
0.06437 
0.10087 
0.09272 
0.05957 
0.06377 
0.05837 
0.12946 
0.18352 
0.07696 
0.06986 
0.06349 
0.10044 
0.08636 
0.02577 
0.21107 
0.10940 
0.02754 
0.12002 
0.13400 
0.12164 
0.22353 
0.12646 
0.09210 
0.04970 
0.07866 
0.08073 
0.11514 
0.10349 
0.06719 
0.07410 
0.10433 
0.14824 
0.08770 
0.09228 
0.16451 
0.09203 
0.04901 
0.11546 
0.10324 
0.11803 
0.10827 
0.15610 
0.02981 
0.11835 
0.07733 
0.15615 
0.09947 
0.14360 
0.13382 
0.03751 
0.09261 
0.14590 
0.03427 
0.11836 
0.17621 
0.23830 
0.15338 
0.02866 
0.08024 
0.10523 
0.05908 
0.06981 
0.07529 
0.01596 
0.09105 
0.05694 
0.08682 
0.12528 
0.10196 
0.11537 
0.03101 
0.06714 
0.11401 
0.09461 
0.19029 
0.10966 
0.10523 
0.09190 
0.05963 
0.07487 
0.13715 
0.10436 
0.06967 
0.08935 
0.03564 
0.02562 
0.12651 
0.06575 
0.08654 
0.08234 
0.10863 
0.09989 
0.11438 
0.06950 
0.14001 
0.14133 
0.09093 
0.05815 
0.02693 
0.10733 
0.05932 
0.10934 
0.10436 
0.12176 
0.12193 
0.11712 
0.11942 
0.12010 
0.13730 
0.12176 
0.11959 
0.05898 
0.11320 
0.08400 
0.01699 
0.02936 
0.07801 
0.23211 
0.07132 
0.10786 
0.14447 
0.16029 
0.06012 
0.10274 
0.19669 
0.18178 
0.13116 
0.17264 
0.08803 
0.09306 
0.02422 
0.10832 
0.15730 
0.06058 
0.13158 
0.02643 
0.02193 
0.10751 
0.11053 
0.09134 
0.11202 
0.07506 
0.12388 
0.03646 
0.21588 
0.08755 
0.08413 
0.13411 
0.05900 
0.14495 
0.19988 
0.08829 
0.14487 
0.02545 
0.12214 
0.12382 
0.05397 
0.03157 
0.01089 
0.05843 
0.11163 
0.08298 
0.10252 
0.10159 
0.02852 
0.13426 
0.12082 
0.08958 
0.08782 
0.10586 
0.17833 
0.19305 
0.11944 
0.06023 
0.02815 
0.12008 
0.08644 
0.19443 
0.12104 
0.10421 
0.15430 
0.09523 
0.11160 
0.07071 
0.16942 
0.12954 
0.09438 
0.08127 
0.07579 
0.04383 
0.10166 
0.09734 
0.04948 
0.09977 
0.12322 
0.09102 
0.06897 
0.14364 
0.16374 
0.09371 
0.16178 
0.05580 
0.13100 
0.12572 
0.06537 
0.10911 
0.06719 
0.06375 
0.10786 
0.09863 
0.05785 
0.09509 
0.04891 
0.16229 
0.11675 
0.07318 
0.04093 
0.15306 
0.15249 
0.08995 
0.09098 
0.10028 
0.09934 
0.13749 
0.11051 
0.03335 
0.15149 
0.12295 
0.07533 
0.09611 
0.05669 
0.13146 
0.10336 
0.07776 
0.08470 
0.10002 
0.05501 
0.08143 
0.14947 
0.14014 
0.07543 
0.13433 
0.16887 
0.19420 
0.10547 
0.07995 
0.10556 
0.04607 
0.10903 
0.11317 
0.07242 
0.12971 
0.08784 
0.15052 
0.09766 
0.06417 
0.12485 
0.08936 

 VECTORS Umean float 
-0.04250 0.02650 -0.08750 
-0.03100 -0.01600 -0.07450 
0.03850 0.04800 0.01400 
-0.05700 0.05800 -0.05750 
-0.05150 0.03450 -0.04950 
-0.04400 0.04950 -0.05400 
-0.00700 -0.00250 -0.08000 
-0.02250 0.00800 -0.00550 
-0.07100 0.03100 0.00150 
0.03300 0.02650 -0.07650 
0.01600 0.00650 -0.04350 
-0.03750 0.01800 -0.12100 
-0.10700 0.02300 -0.01200 
-0.01950 0.01850 0.00150 
-0.07900 0.04200 -0.02150 
0.02800 0.00100 -0.07650 
-0.04150 0.07100 -0.08250 
-0.04750 -0.01550 -0.03900 
-0.09650 0.01250 -0.02100 
-0.00550 0.00750 -0.08500 
-0.04200 0.06300 -0.03250 
-0.02000 -0.01950 -0.05200 
-0.02000 0.08500 0.01750 
-0.06300 0.03700 -0.06550 
-0.05900 0.05400 -0.05500 
0.01050 0.10350 -0.07150 
-0.03550 0.03700 -0.05650 
0.01000 0.00850 -0.05550 
-0.06550 -0.00500 -0.10600 
-0.01900 0.00200 -0.10700 
0.00250 0.01350 -0.06900 
-0.03150 0.12050 -0.08800 
-0.02850 0.01200 0.01100 
-0.01800 -0.01000 -0.01300 
-0.01350 0.02350 -0.16450 
-0.05250 0.00450 -0.06700 
0.01150 0.01600 -0.04700 
0.01500 0.10050 -0.07800 
0.02700 0.07900 -0.02750 
0.02000 -0.02150 -0.09300 
0.00800 0.10350 -0.04800 
0.04600 0.10350 -0.07000 
-0.02450 0.05900 -0.10450 
-0.01200 0.06650 -0.02900 
-0.04900 -0.01350 -0.08100 
0.00750 0.00600 0.16050 
0.00550 0.14200 0.04600 
-0.07550 0.08750 -0.06700 
-0.07700 -0.03850 0.03350 
0.03100 0.05400 0.01050 
-0.07150 0.00100 -0.01050 
-0.08250 0.02900 -0.09150 
-0.02000 0.07650 -0.05250 
-0.03950 0.06800 -0.06600 
-0.00650 0.08000 0.02600 
0.11050 0.11300 -0.00900 
0.09450 0.13650 0.01100 
0.01050 0.05550 -0.01450 
-0.03100 -0.03100 -0.07100 
-0.02850 0.01750 -0.08250 
-0.00550 0.02050 -0.02500 
0.00100 0.02900 -0.05650 
0.00250 0.07400 -0.00300 
-0.00900 0.08350 0.01600 
-0.01000 0.03300 0.02850 
0.03650 0.13150 -0.03000 
0.00450 0.14100 -0.11400 
0.03850 0.08200 -0.01450 
-0.02150 0.06700 -0.01550 
0.04950 0.05150 -0.05950 
-0.03150 0.04750 -0.05650 
-0.10800 0.07550 -0.01800 
0.03800 0.05200 -0.03500 
0.06600 0.14850 -0.08600 
-0.03400 0.05100 -0.05850 
0.00100 0.11700 -0.00500 
0.01900 0.08950 0.03550 
0.04100 0.04250 -0.12250 
0.00150 0.12400 0.02650 
-0.02550 0.03500 -0.04900 
0.10250 0.07850 -0.13100 
-0.00750 0.18100 -0.04550 
-0.05650 0.08250 -0.05450 
-0.07750 0.02650 -0.03650 
-0.11650 0.01200 -0.01850 
-0.02900 -0.03800 -0.05200 
0.02200 0.06450 -0.03900 
0.04200 0.11750 -0.01950 
0.00250 0.17450 -0.03500 
0.01600 0.00550 -0.03300 
0.02150 -0.00050 -0.05550 
-0.02750 -0.03800 -0.06450 
-0.03200 0.01500 -0.05450 
-0.11550 0.00100 -0.11300 
0.00700 0.05450 0.00100 
0.01100 0.19000 -0.04400 
0.01450 0.00900 -0.08650 
0.08200 0.03500 -0.00200 
0.01050 0.00350 -0.07550 
-0.07800 -0.00200 -0.06700 
-0.00450 0.04200 -0.04850 
0.03900 0.05050 -0.01200 
0.04900 0.03550 -0.06000 
0.01700 0.07550 0.05600 
0.06550 0.10500 -0.08400 
-0.04000 0.11750 -0.04200 
-0.05050 0.05850 -0.04100 
0.12750 0.09100 -0.05150 
0.03850 0.13450 -0.04950 
-0.02000 -0.00800 -0.00450 
-0.01000 -0.02000 -0.05700 
0.00750 0.09600 -0.04900 
0.04200 0.10250 0.01400 
0.03550 0.08550 -0.06300 
-0.05650 0.00950 -0.06050 
-0.02050 0.02400 0.00550 
-0.01500 0.05550 -0.06600 
-0.03450 -0.00700 0.03150 
0.01300 0.01450 -0.00900 
-0.05100 0.03450 -0.08200 
0.00100 0.06250 0.04500 
-0.00600 -0.01050 -0.01800 
-0.08100 -0.00950 -0.06350 
-0.01900 -0.04450 -0.02100 
0.02400 0.04450 -0.04700 
-0.02600 0.06750 -0.00900 
0.01950 0.03250 -0.04450 
0.02900 0.10050 0.05000 
0.01000 0.10050 -0.06250 
0.02650 0.12400 0.01150 
0.01450 0.05800 -0.07700 
-0.07950 -0.00850 -0.07800 
-0.09150 0.05100 -0.04850 
0.03000 0.15000 -0.04600 
0.10200 0.11950 -0.01200 
0.04100 -0.01050 -0.06900 
0.02500 0.04400 -0.02650 
-0.10350 0.01500 0.00350 
0.01600 0.04400 -0.02200 
-0.00950 0.12650 0.02600 
0.01000 -0.02500 0.02700 
0.08400 0.06600 0.01100 
-0.02800 -0.03650 0.00200 
0.07050 0.14000 0.12900 
0.02550 -0.02600 -0.02150 
0.04150 0.08000 -0.06450 
-0.04800 0.05100 -0.02350 
-0.02150 0.02900 -0.07800 
-0.07350 0.09850 -0.03100 
0.00200 0.03650 -0.02550 
0.04750 0.13950 -0.05700 
-0.01500 0.08100 0.16800 
0.03700 0.08350 0.02050 
0.04350 -0.02450 -0.07650 
-0.01250 0.03800 -0.05000 
-0.02350 -0.02250 -0.04250 
-0.07200 0.09400 -0.04450 
0.04150 0.08650 -0.05100 
0.03150 0.16800 -0.03050 
0.02950 0.14200 -0.02200 
0.00400 -0.00550 0.00200 
0.08800 0.07750 0.05300 
0.01000 0.01500 -0.03600 
0.02350 0.11950 -0.04200 
-0.02700 0.17300 -0.11650 
-0.07400 0.13550 -0.01350 
-0.00650 -0.03500 -0.01500 
0.05000 -0.00500 -0.01500 
-0.01400 0.11100 0.05000 
-0.02550 0.05100 -0.06600 
0.00800 -0.02150 0.00050 
-0.03550 0.00300 -0.07650 
0.05600 0.08400 -0.01650 
-0.05050 -0.00700 -0.01400 
-0.02150 -0.00850 -0.00700 
0.02000 -0.03450 -0.05900 
0.01850 0.05650 -0.00050 
0.01950 -0.00100 -0.08400 
-0.01050 0.16400 -0.05050 
0.07600 0.04850 -0.13150 
0.00350 0.01000 -0.08950 
-0.07900 -0.00850 -0.02200 
-0.00000 0.06550 -0.00400 
-0.02450 0.00050 0.02550 
0.00850 -0.01400 -0.10300 
-0.03400 0.00550 -0.01750 
-0.02400 0.03050 -0.06050 
0.01300 -0.02000 0.00350 
0.05000 0.06750 -0.03600 
-0.00600 -0.04750 0.04200 
0.02650 0.12600 0.00150 
-0.03950 -0.02850 -0.01700 
0.04200 0.01500 0.03300 
-0.03150 0.07400 0.05650 
0.02400 0.06500 -0.05600 
-0.02350 0.04400 -0.08350 
-0.01150 -0.00750 -0.04350 
-0.01200 -0.04000 0.00850 
0.05600 0.16000 0.10400 
0.04050 0.07450 -0.00100 
-0.02550 -0.03700 -0.00900 
0.03850 0.06150 -0.00050 
0.03050 0.07500 -0.03300 
-0.03300 0.07800 -0.02850 
0.08950 0.01250 -0.00950 
-0.00250 -0.03750 -0.01650 
-0.02700 -0.03450 -0.06100 
-0.03200 0.02400 -0.05150 
-0.00650 0.01400 -0.02800 
-0.00650 0.02600 -0.00000 
-0.02400 0.05800 -0.01000 
0.04800 0.09300 -0.00950 
-0.02700 -0.01550 -0.10350 
0.03200 0.10500 -0.10550 
-0.08200 0.00100 -0.05100 
0.05100 0.10150 -0.02100 
0.02000 0.07450 0.00500 
-0.04700 -0.01550 0.01450 
0.07000 0.05050 -0.06150 
-0.03250 -0.00100 -0.03150 
-0.01800 0.10250 -0.06550 
0.00700 -0.04850 -0.04100 
0.03550 0.04950 -0.02200 
0.01450 0.07600 -0.02250 
-0.00050 0.08200 -0.03850 
0.00800 0.00800 -0.06050 
-0.01700 -0.02150 -0.04400 
0.00450 0.08450 0.00600 
0.08100 0.13650 -0.05100 
0.07800 0.00500 -0.01500 
-0.02300 0.06350 -0.04300 
0.02550 0.12750 -0.19950 
0.02950 0.08550 -0.01450 
-0.02200 0.04400 -0.04700 
-0.07950 0.06750 -0.07400 
0.06300 -0.03450 -0.06800 
0.00600 0.02150 -0.05750 
0.02100 0.10100 -0.00000 
-0.11350 0.00500 0.04700 
0.03700 0.01450 -0.03200 
0.01100 0.01050 -0.04800 
-0.00550 0.04650 -0.03400 
0.09650 0.06700 0.11850 
-0.05150 -0.02900 0.05900 
-0.00900 -0.05850 -0.03700 
-0.07400 0.02050 -0.06450 
0.05750 0.12500 -0.04850 
0.04300 0.07250 -0.03950 
-0.00250 0.03650 0.00700 
-0.04150 0.04450 0.09950 
0.08350 0.03100 0.10900 
-0.08700 0.07500 0.04500 
-0.00950 0.06050 -0.02850 
0.04500 0.02700 -0.09400 
-0.02750 0.11700 -0.03450 
0.00250 0.02450 0.00950 
0.04100 0.06800 -0.00700 
-0.08700 -0.02100 -0.00800 
-0.02000 -0.08600 0.01800 
-0.01950 0.15950 0.02650 
0.10800 0.09250 -0.06750 
0.09200 0.00950 -0.05350 
-0.02150 0.15300 0.00150 
0.12850 -0.05550 -0.03650 
0.02650 -0.01900 -0.05550 
-0.02750 0.02600 -0.09350 
0.01550 0.08600 -0.03100 
0.01600 0.03800 -0.04300 
0.04050 -0.00500 -0.04900 
0.02100 0.05250 -0.01450 
0.07550 0.10250 -0.02350 
-0.00200 0.14300 -0.11500 
0.01450 0.07200 -0.02300 
0.05000 0.03450 -0.03450 
-0.05450 -0.00200 -0.03250 
-0.02900 0.08650 0.04200 
0.04150 0.06400 -0.04050 
0.01800 0.01550 -0.01000 
0.04700 0.19800 -0.05600 
-0.02400 0.10600 0.01250 
0.00450 -0.02700 -0.00300 
-0.09200 0.07550 0.01550 
0.09800 0.05150 0.07550 
0.01250 0.09650 -0.07300 
0.12150 0.18650 -0.02050 
-0.08300 0.09350 -0.01900 
-0.02300 -0.07350 0.05050 
0.03650 -0.00400 -0.03350 
-0.03350 0.02400 -0.06700 
0.00350 0.02400 -0.07700 
-0.05600 0.03450 -0.09450 
0.04500 0.07800 -0.05100 
-0.01900 0.04300 0.04800 
0.05300 0.00900 -0.05100 
-0.09150 0.01600 -0.04750 
-0.01200 0.12050 0.08550 
0.01950 0.00050 0.08550 
0.00650 0.02350 -0.08900 
0.07800 0.13400 -0.05500 
-0.05700 -0.04800 0.05400 
0.04300 -0.01850 0.01450 
0.02600 0.10150 -0.04850 
0.03200 -0.01500 0.09700 
-0.04350 -0.10950 -0.00700 
-0.00400 0.02400 0.10550 
0.05350 0.07750 -0.12450 
0.00400 -0.02450 -0.01650 
0.00150 0.11350 -0.03350 
-0.06250 0.04550 -0.00200 
0.01950 0.15350 -0.02100 
-0.02400 0.09650 -0.00250 
-0.10200 0.04600 0.09000 
-0.00600 -0.06900 -0.11450 
-0.02600 0.02250 -0.01500 
0.01100 0.07750 0.04950 
-0.11450 0.07900 -0.04400 
-0.03400 -0.00350 0.00250 
-0.08850 -0.07650 0.01800 
0.05100 0.12100 -0.11750 
0.17400 0.12050 -0.10950 