# vtk DataFile Version 2.0 
Xm, Ym, Zm, Uvecs, timestep 10109 
ASCII 
 
DATASET POLYDATA POINTS 516 float 
 -4.480   1.595 -72.640 
  5.416  -1.268 -71.750 
 -0.451   5.569 -68.585 
 -1.598   2.607 -70.218 
  5.758   9.721 -72.265 
 -2.303   8.809 -76.722 
 -0.328   4.506 -75.811 
  0.352   5.888 -68.653 
 -0.019   6.515 -69.352 
 -2.708  10.144 -71.707 
  3.678  10.983 -70.363 
  1.639   5.877 -71.972 
  0.813   9.680 -68.059 
 -1.991   0.060 -71.252 
  8.309  -1.295 -66.319 
 -5.639   1.962 -70.713 
 -7.968   1.746 -70.536 
  0.788   8.501 -70.164 
 -1.952   7.598 -66.984 
  4.251  12.924 -68.169 
  1.533  10.410 -66.576 
  8.599   1.054 -69.052 
  6.334   2.329 -65.721 
 -5.669  -0.215 -73.189 
-10.651   6.126 -74.216 
  8.260  -2.962 -67.876 
 -1.116   9.619 -66.591 
 -9.819   6.150 -71.252 
  3.556  -5.197 -71.020 
 -9.823   9.683 -66.251 
  4.777  -0.160 -69.703 
  7.233   3.369 -67.801 
 10.477  -1.839 -68.162 
  5.134  -2.024 -71.823 
-11.678   5.822 -71.205 
 -6.248 -12.184 -71.641 
 10.528 -10.855 -66.526 
 -9.444   0.567 -72.117 
 -0.806  10.442 -70.320 
 -1.369  11.847 -65.809 
  3.113 -11.876 -64.584 
  6.487   8.382 -75.116 
 -1.231  -6.383 -67.617 
  9.658   9.458 -67.797 
 -1.263  10.538 -64.416 
  1.403   3.681 -70.787 
 -3.574   4.755 -68.362 
 -5.614   4.882 -63.628 
 10.311   6.148 -73.803 
  8.572   3.806 -70.413 
 -8.244   8.450 -66.679 
  7.326  -9.657 -67.470 
-12.366   8.093 -67.295 
 -3.868  -2.168 -70.960 
 -1.289   7.729 -68.981 
  3.197   6.499 -64.745 
  5.369  -5.918 -67.051 
  4.653   2.702 -71.062 
  1.254  -8.608 -65.626 
  2.029   3.199 -69.202 
 14.134   4.021 -70.215 
 -1.037   1.248 -65.002 
  3.918  -9.669 -68.118 
 -0.331  -9.046 -69.834 
  4.075   9.134 -68.993 
 -3.527   4.716 -64.100 
 -6.362   0.153 -66.474 
  6.119  -3.344 -68.984 
  0.802  12.061 -64.120 
  0.200   7.408 -65.198 
  6.607   2.077 -69.123 
 -1.555  11.608 -74.572 
 -1.353  10.346 -68.132 
 -5.742   1.565 -64.419 
  9.409  11.845 -66.395 
 -9.414   1.510 -67.971 
 -4.066   6.501 -65.015 
  7.283 -11.566 -65.197 
  5.598  11.411 -74.344 
 14.531   7.937 -70.613 
 11.627  -0.614 -66.897 
 -0.273   0.086 -72.888 
  6.226   7.154 -64.955 
 16.272   1.657 -75.066 
 -3.833   7.930 -63.004 
-13.480   1.088 -77.162 
  3.139  -8.392 -72.871 
  5.319 -10.275 -70.989 
-10.128   3.449 -68.322 
  4.242  -0.033 -68.740 
  7.177  -3.630 -68.357 
  2.156 -11.857 -73.923 
  0.551   5.007 -62.607 
  4.140  -4.357 -74.201 
 -5.734  11.178 -66.580 
  0.968   7.543 -67.303 
 -0.668  -1.550 -67.523 
 -1.141 -10.998 -65.492 
 -3.929  -8.023 -64.817 
  5.937   4.005 -74.310 
  1.841 -10.490 -67.237 
 -2.732  10.778 -63.102 
 -8.477  -6.590 -67.468 
-14.070  10.491 -74.028 
 -4.383  -6.209 -63.491 
  7.710   5.506 -67.921 
  4.040  -0.582 -69.578 
 -7.787   2.054 -68.638 
  3.817  -1.962 -70.787 
 12.968   5.630 -66.445 
 -5.417  -2.827 -68.200 
-12.218  -0.578 -66.115 
 11.494  -7.734 -65.913 
  4.727  -9.670 -66.518 
 -8.925   9.018 -71.725 
 -8.284  12.952 -66.583 
 -1.233  -0.717 -63.960 
  0.902  -2.664 -68.547 
  3.575 -11.203 -67.310 
 -4.804   6.601 -61.245 
  7.541   9.787 -68.941 
 -8.050  -2.592 -66.814 
  6.855   2.375 -64.946 
  3.739  -8.923 -68.394 
-11.982  -8.574 -67.037 
  6.750  -0.172 -68.923 
-13.831  -4.865 -69.921 
-13.562  -7.517 -72.194 
 -6.167  -5.534 -75.960 
  4.605  -3.898 -73.500 
 -0.680   9.027 -63.898 
-13.479   1.922 -67.761 
 14.490   6.588 -67.036 
 -6.719   7.991 -75.841 
 -5.313   8.870 -68.447 
 -1.448  -6.912 -69.925 
 -8.516  -8.971 -66.526 
-12.837   0.696 -68.731 
 -5.097   8.545 -65.720 
  6.062   3.829 -63.160 
  2.719   4.279 -65.262 
-12.951  -4.462 -69.889 
-11.006   9.931 -70.088 
 -0.346  -0.271 -62.311 
-10.732  -4.220 -71.883 
 -0.184  -1.341 -68.048 
  6.047   7.026 -72.415 
 -6.330  -8.858 -66.772 
  3.699  -1.890 -68.379 
 -6.141   8.105 -61.713 
 -9.374  11.663 -64.533 
 -3.593   2.404 -61.147 
 -2.839  -8.325 -69.104 
  2.946  -0.876 -73.245 
 -2.288  -2.963 -75.537 
 -6.607  -9.563 -65.406 
 -2.670   3.317 -61.968 
  5.552  -7.341 -70.524 
 -5.567  -2.984 -69.656 
  5.745  -4.834 -65.225 
 -2.114   3.607 -72.367 
  7.959  -6.141 -67.814 
 -1.679   3.609 -67.353 
 16.922   1.099 -72.895 
  1.913  -1.069 -64.166 
  6.675   9.123 -74.856 
  4.186   7.684 -71.396 
  0.871   9.728 -61.946 
 -3.275  11.788 -66.112 
 10.034  -6.483 -66.120 
-13.069   9.462 -68.301 
 -6.747   3.307 -62.662 
 14.730   6.564 -69.605 
-15.331   3.147 -71.202 
 11.357   9.648 -69.689 
-10.258  -9.175 -67.218 
 -9.835   4.534 -64.273 
 -0.482  -0.691 -63.017 
  5.297 -12.579 -65.968 
-13.977   8.899 -69.408 
  9.341  -3.428 -66.700 
 -6.585 -10.425 -73.633 
  2.557 -12.228 -64.639 
  2.792  13.094 -66.746 
  7.590   1.591 -64.804 
 -5.322 -10.104 -70.508 
  2.333 -10.159 -64.978 
  8.737  10.396 -65.308 
 -6.967   4.451 -64.738 
 14.817   2.387 -68.665 
 -7.453  -5.088 -66.723 
 -3.728   4.454 -61.920 
 -9.608   2.972 -71.812 
 -5.622  -7.590 -64.537 
 -0.478  -6.388 -63.139 
  8.875  11.445 -73.516 
-14.431   1.825 -67.543 
  4.665  -5.334 -73.728 
-12.415  13.043 -67.653 
  6.933  -4.369 -66.540 
 -3.678   0.666 -71.733 
-15.024  -1.747 -75.608 
 12.519   8.262 -68.288 
-15.011   5.226 -71.288 
 -9.844  -0.261 -71.072 
 12.195   8.332 -72.064 
-10.599  -2.793 -69.807 
-11.428  10.628 -66.382 
 10.108   3.836 -61.706 
  9.430  -3.019 -70.048 
  9.443  -9.008 -69.438 
 10.143  -9.410 -64.399 
 -1.228  -4.073 -65.071 
 10.073  -5.973 -68.151 
 -4.840  -7.935 -67.581 
  2.597  -9.633 -72.754 
  7.526   5.653 -63.627 
 11.647   1.419 -65.392 
  9.591  -5.910 -62.814 
 16.308   3.933 -71.251 
  2.095   6.165 -64.677 
 -3.165   2.024 -60.923 
 10.685  -1.141 -64.895 
 -9.073  -8.922 -66.340 
 16.914  -0.578 -67.520 
  8.523   2.958 -69.073 
 -7.742  -0.745 -62.938 
 -3.679  -3.198 -66.016 
 -7.920  -1.580 -74.233 
 -0.343  -7.072 -64.897 
  6.130  10.656 -69.814 
 -8.636  10.465 -69.188 
-14.041   3.365 -73.923 
 13.192   3.740 -71.035 
 -3.535   3.024 -67.888 
 -6.045 -12.061 -76.030 
 12.264  10.605 -67.586 
 16.554   6.755 -66.490 
 16.821  11.503 -68.739 
  8.917  -6.571 -69.833 
 -9.069  -1.191 -68.361 
 11.822  -3.337 -68.900 
 -4.425   5.068 -77.630 
-11.913   2.516 -74.590 
-13.792  11.682 -67.589 
-13.025  10.028 -66.793 
 10.620   2.966 -74.485 
-11.908  -1.207 -65.084 
 -4.463   9.056 -72.071 
 11.233  12.353 -65.923 
  8.548  12.507 -68.720 
 -8.117   3.482 -75.751 
  7.324  -8.002 -71.914 
  7.512  13.243 -65.623 
 -9.861   3.144 -63.125 
  3.745  -4.390 -72.162 
 -8.079  -4.843 -77.773 
 17.199  11.174 -67.975 
-14.140 -11.954 -72.961 
 11.306   5.858 -65.276 
 10.442 -11.564 -71.965 
  3.875   2.425 -73.095 
 -5.766  -8.276 -72.133 
  8.441  -3.020 -71.505 
 -3.545  -7.865 -74.156 
  7.068   8.185 -74.716 
  7.900   5.587 -66.239 
-13.655  11.398 -74.555 
  5.786  -8.061 -62.825 
 13.421  10.741 -69.268 
  1.492  -4.159 -65.856 
  2.768  -8.081 -73.962 
 10.077  -0.990 -66.234 
  5.146  11.837 -61.278 
 15.275   9.530 -70.477 
 12.605 -10.028 -68.044 
-14.322  -0.680 -74.930 
-13.246   6.145 -64.001 
 10.164   1.494 -62.322 
  9.780 -12.303 -71.135 
  5.830 -10.590 -61.585 
  8.216  -3.809 -61.979 
 -2.483  10.598 -69.688 
 13.817   6.941 -70.255 
  6.271   7.969 -65.606 
  5.755 -12.477 -65.938 
 12.038   3.193 -61.793 
  0.139  -5.569 -67.701 
 15.271 -12.542 -73.554 
 -0.969   8.251 -74.315 
 11.099   2.886 -55.073 
-12.002   2.757 -62.074 
  4.119   8.973 -74.414 
 -2.409 -10.503 -65.249 
 15.134   9.996 -64.336 
 -3.695   0.767 -67.049 
 -4.228  -6.991 -69.395 
  9.820  -7.033 -66.159 
  0.305 -12.183 -64.019 
 13.542   1.238 -74.997 
-15.063  -4.243 -69.206 
  0.528   3.706 -75.951 
 -6.239   5.652 -72.572 
-16.261  -7.679 -75.341 
 -4.188   5.390 -70.075 
-11.022   3.797 -70.108 
 -5.934   0.030 -72.340 
  3.117   4.486 -70.421 
-10.466  10.605 -70.645 
  6.104  -1.128 -71.081 
  2.359   9.252 -65.138 
 -4.731   3.370 -76.650 
  1.206  -6.067 -61.796 
 -2.240  -4.012 -64.269 
 -1.638  -9.041 -69.835 
 -5.024   0.375 -69.114 
 -4.980  -1.079 -66.719 
 -0.040  -6.793 -73.006 
-10.134  -5.871 -73.255 
  2.184  -8.488 -70.349 
 16.434   3.889 -65.494 
  4.032  10.372 -69.951 
 -5.672   5.696 -74.063 
 -0.657   0.881 -71.600 
 -9.411  -7.088 -68.051 
-12.171   4.797 -74.076 
  8.449   4.046 -59.770 
  5.553  -1.539 -72.719 
 14.208  -4.812 -65.234 
  1.784  -6.630 -72.653 
  5.000   4.005 -63.055 
  5.979 -11.627 -74.454 
 11.915  12.227 -73.592 
 -3.052   7.705 -62.132 
  2.974   8.493 -58.871 
 -1.793   2.979 -64.225 
 -3.252  -7.175 -72.726 
-13.533   6.467 -70.266 
 12.390   6.946 -77.151 
  9.700  12.597 -69.407 
  3.830 -11.783 -66.202 
  3.077   0.345 -66.048 
 -1.043   4.198 -65.087 
 18.136  -5.806 -67.973 
  0.578  -7.099 -65.558 
 -9.444 -12.722 -65.798 
 -1.273  -4.388 -64.986 
 -5.148   4.523 -64.058 
-12.179  -5.035 -74.201 
  5.101   5.851 -61.792 
  6.907  -6.603 -73.498 
 -4.143   8.665 -64.007 
  4.285  -0.849 -65.088 
  2.873   0.720 -64.477 
-12.207  -7.457 -66.343 
 11.906  -0.786 -71.625 
 -9.528   1.852 -59.765 
 11.124   0.959 -70.919 
-10.486  -9.093 -64.596 
 -0.990  -1.841 -62.428 
-10.871  -0.728 -70.897 
 -3.705  -8.313 -72.771 
-16.279  -6.442 -73.728 
-12.904   3.694 -72.774 
  8.834  -8.262 -62.923 
  6.056  -2.742 -64.672 
 -6.835  -4.753 -63.136 
 -4.891   0.842 -65.947 
 -0.924  10.039 -71.813 
 -4.915   5.050 -60.215 
 -6.792  -1.583 -59.554 
-14.598   8.380 -69.952 
 14.851  -5.095 -70.517 
 14.881  -9.341 -64.954 
-13.128   1.519 -73.648 
  4.003  10.561 -74.393 
 -6.790  -5.222 -76.505 
-15.919  -5.772 -70.665 
 13.298   0.760 -63.005 
  7.297   6.833 -71.678 
-10.436  -6.875 -76.778 
 11.308  12.538 -69.941 
 14.720  12.863 -67.766 
  2.873   2.702 -68.192 
 -1.655  10.592 -65.722 
 11.142  -5.052 -67.034 
-10.297   0.971 -70.957 
 -5.264  -1.713 -64.072 
-13.037  11.490 -67.980 
 -9.067   0.280 -73.740 
 -3.933  10.750 -72.358 
  7.242 -11.042 -64.267 
 10.540  -2.877 -71.714 
 -7.415   3.487 -63.172 
 -1.857 -11.169 -69.345 
  2.431   2.648 -68.892 
  5.248  -5.801 -58.642 
  3.300  -3.981 -67.681 
  0.329 -11.175 -70.150 
-12.471  11.427 -65.659 
  7.704  11.698 -64.005 
 -7.196  10.960 -74.983 
 16.318  -3.587 -63.296 
 12.732   1.216 -67.081 
 12.791   5.031 -70.458 
  7.655  -0.319 -60.694 
-11.285  -5.292 -72.349 
 -3.474 -11.221 -68.501 
 -7.227 -11.551 -64.072 
 -8.815 -10.317 -76.037 
 14.236  -4.862 -63.035 
 -4.812  -2.482 -62.162 
  1.354   3.114 -61.715 
 13.112  -6.757 -63.692 
-13.249  -0.675 -64.088 
 13.735  -7.224 -64.368 
-14.172  -2.724 -65.999 
 11.939   5.862 -61.313 
  5.738  -1.011 -65.647 
 -5.840  11.682 -60.883 
 12.822 -10.945 -73.037 
 14.024   0.335 -68.269 
 11.581  10.855 -60.685 
  7.206  -2.950 -64.950 
 10.381   8.686 -64.977 
  8.931  -1.562 -66.562 
  4.561   6.562 -71.526 
  9.216   2.536 -59.983 
 10.277  -7.890 -64.487 
-12.506   4.189 -77.278 
 -9.282   6.970 -75.553 
 17.032  -7.085 -69.462 
  4.036   4.329 -63.021 
-11.348  -7.979 -74.743 
-13.482   0.684 -66.442 
 16.093  10.411 -65.344 
 -8.656  -3.877 -62.823 
  2.845  -4.399 -58.163 
 -6.183  -4.556 -66.936 
 13.595   8.018 -64.171 
  9.538 -11.198 -64.508 
 16.663  10.991 -73.192 
  1.649   0.661 -64.202 
-12.661  -7.643 -70.200 
 14.962  -4.700 -66.804 
  2.657  12.593 -69.599 
 16.557  -6.805 -71.216 
  1.338   6.303 -61.404 
 10.463   7.045 -67.082 
-15.661   7.206 -76.275 
-13.931   5.317 -77.090 
  3.671  -4.731 -60.687 
 15.101   7.106 -74.130 
  0.180 -11.357 -73.606 
 -1.746 -10.246 -66.248 
-13.997   7.891 -65.856 
 -5.837  13.049 -63.549 
 -9.169  -3.131 -73.128 
 -9.037   1.188 -63.480 
  0.211  -1.607 -74.603 
 14.942   9.921 -69.744 
 -1.316  -0.325 -64.764 
  8.512 -12.721 -62.522 
  2.925 -13.014 -65.632 
  3.478   8.663 -71.682 
  1.692   8.299 -68.939 
 15.090   0.972 -64.097 
 -7.238  11.692 -69.288 
  3.183  -0.823 -67.130 
 -6.467   2.314 -62.743 
 13.369  -7.586 -65.670 
 -5.250  11.377 -68.194 
 -8.271   8.598 -69.318 
-10.619  12.087 -68.063 
 -7.175   7.296 -68.094 
 -8.701  -0.670 -74.742 
 -2.421   7.957 -69.040 
 -0.722  -4.878 -72.759 
 -9.096   4.639 -65.513 
  4.316   5.740 -71.424 
-14.136  -9.398 -72.961 
 -2.770   2.141 -62.459 
 11.929 -11.650 -70.168 
 16.428   7.489 -66.945 
 -7.331  -5.837 -72.641 
 -1.366  11.934 -70.818 
 11.011   5.548 -67.107 
 11.086   5.183 -68.900 
 12.534  -3.234 -71.972 
 -0.356  -0.234 -76.519 
 12.165  -2.502 -65.475 
 12.939  -5.664 -73.895 
 11.740  -0.353 -62.764 
  5.123   8.657 -74.516 
  0.561   7.424 -76.297 
  1.293   5.928 -68.001 
  1.546  -6.668 -76.479 
 -4.867  10.574 -74.017 
  8.378  -6.296 -65.754 
 -1.634 -12.312 -64.688 
  6.467  -2.420 -71.403 
-14.335  -9.926 -73.233 
 15.361  -9.957 -68.697 
-14.791   9.496 -74.043 
 -9.764  12.001 -60.025 
  2.913   7.226 -68.402 
  1.839   4.159 -72.646 
  0.728   2.894 -76.143 
 -5.470   0.948 -63.485 
 19.112 -11.281 -71.096 
 -7.077  -3.384 -75.773 
 -3.751  -0.452 -68.859 
  4.188  -4.900 -71.876 
 -8.748   4.305 -60.246 
  7.643   3.077 -65.231 
 12.403  -1.063 -75.548 

 VERTICES 516 1032 
1 0 
1 1 
1 2 
1 3 
1 4 
1 5 
1 6 
1 7 
1 8 
1 9 
1 10 
1 11 
1 12 
1 13 
1 14 
1 15 
1 16 
1 17 
1 18 
1 19 
1 20 
1 21 
1 22 
1 23 
1 24 
1 25 
1 26 
1 27 
1 28 
1 29 
1 30 
1 31 
1 32 
1 33 
1 34 
1 35 
1 36 
1 37 
1 38 
1 39 
1 40 
1 41 
1 42 
1 43 
1 44 
1 45 
1 46 
1 47 
1 48 
1 49 
1 50 
1 51 
1 52 
1 53 
1 54 
1 55 
1 56 
1 57 
1 58 
1 59 
1 60 
1 61 
1 62 
1 63 
1 64 
1 65 
1 66 
1 67 
1 68 
1 69 
1 70 
1 71 
1 72 
1 73 
1 74 
1 75 
1 76 
1 77 
1 78 
1 79 
1 80 
1 81 
1 82 
1 83 
1 84 
1 85 
1 86 
1 87 
1 88 
1 89 
1 90 
1 91 
1 92 
1 93 
1 94 
1 95 
1 96 
1 97 
1 98 
1 99 
1 100 
1 101 
1 102 
1 103 
1 104 
1 105 
1 106 
1 107 
1 108 
1 109 
1 110 
1 111 
1 112 
1 113 
1 114 
1 115 
1 116 
1 117 
1 118 
1 119 
1 120 
1 121 
1 122 
1 123 
1 124 
1 125 
1 126 
1 127 
1 128 
1 129 
1 130 
1 131 
1 132 
1 133 
1 134 
1 135 
1 136 
1 137 
1 138 
1 139 
1 140 
1 141 
1 142 
1 143 
1 144 
1 145 
1 146 
1 147 
1 148 
1 149 
1 150 
1 151 
1 152 
1 153 
1 154 
1 155 
1 156 
1 157 
1 158 
1 159 
1 160 
1 161 
1 162 
1 163 
1 164 
1 165 
1 166 
1 167 
1 168 
1 169 
1 170 
1 171 
1 172 
1 173 
1 174 
1 175 
1 176 
1 177 
1 178 
1 179 
1 180 
1 181 
1 182 
1 183 
1 184 
1 185 
1 186 
1 187 
1 188 
1 189 
1 190 
1 191 
1 192 
1 193 
1 194 
1 195 
1 196 
1 197 
1 198 
1 199 
1 200 
1 201 
1 202 
1 203 
1 204 
1 205 
1 206 
1 207 
1 208 
1 209 
1 210 
1 211 
1 212 
1 213 
1 214 
1 215 
1 216 
1 217 
1 218 
1 219 
1 220 
1 221 
1 222 
1 223 
1 224 
1 225 
1 226 
1 227 
1 228 
1 229 
1 230 
1 231 
1 232 
1 233 
1 234 
1 235 
1 236 
1 237 
1 238 
1 239 
1 240 
1 241 
1 242 
1 243 
1 244 
1 245 
1 246 
1 247 
1 248 
1 249 
1 250 
1 251 
1 252 
1 253 
1 254 
1 255 
1 256 
1 257 
1 258 
1 259 
1 260 
1 261 
1 262 
1 263 
1 264 
1 265 
1 266 
1 267 
1 268 
1 269 
1 270 
1 271 
1 272 
1 273 
1 274 
1 275 
1 276 
1 277 
1 278 
1 279 
1 280 
1 281 
1 282 
1 283 
1 284 
1 285 
1 286 
1 287 
1 288 
1 289 
1 290 
1 291 
1 292 
1 293 
1 294 
1 295 
1 296 
1 297 
1 298 
1 299 
1 300 
1 301 
1 302 
1 303 
1 304 
1 305 
1 306 
1 307 
1 308 
1 309 
1 310 
1 311 
1 312 
1 313 
1 314 
1 315 
1 316 
1 317 
1 318 
1 319 
1 320 
1 321 
1 322 
1 323 
1 324 
1 325 
1 326 
1 327 
1 328 
1 329 
1 330 
1 331 
1 332 
1 333 
1 334 
1 335 
1 336 
1 337 
1 338 
1 339 
1 340 
1 341 
1 342 
1 343 
1 344 
1 345 
1 346 
1 347 
1 348 
1 349 
1 350 
1 351 
1 352 
1 353 
1 354 
1 355 
1 356 
1 357 
1 358 
1 359 
1 360 
1 361 
1 362 
1 363 
1 364 
1 365 
1 366 
1 367 
1 368 
1 369 
1 370 
1 371 
1 372 
1 373 
1 374 
1 375 
1 376 
1 377 
1 378 
1 379 
1 380 
1 381 
1 382 
1 383 
1 384 
1 385 
1 386 
1 387 
1 388 
1 389 
1 390 
1 391 
1 392 
1 393 
1 394 
1 395 
1 396 
1 397 
1 398 
1 399 
1 400 
1 401 
1 402 
1 403 
1 404 
1 405 
1 406 
1 407 
1 408 
1 409 
1 410 
1 411 
1 412 
1 413 
1 414 
1 415 
1 416 
1 417 
1 418 
1 419 
1 420 
1 421 
1 422 
1 423 
1 424 
1 425 
1 426 
1 427 
1 428 
1 429 
1 430 
1 431 
1 432 
1 433 
1 434 
1 435 
1 436 
1 437 
1 438 
1 439 
1 440 
1 441 
1 442 
1 443 
1 444 
1 445 
1 446 
1 447 
1 448 
1 449 
1 450 
1 451 
1 452 
1 453 
1 454 
1 455 
1 456 
1 457 
1 458 
1 459 
1 460 
1 461 
1 462 
1 463 
1 464 
1 465 
1 466 
1 467 
1 468 
1 469 
1 470 
1 471 
1 472 
1 473 
1 474 
1 475 
1 476 
1 477 
1 478 
1 479 
1 480 
1 481 
1 482 
1 483 
1 484 
1 485 
1 486 
1 487 
1 488 
1 489 
1 490 
1 491 
1 492 
1 493 
1 494 
1 495 
1 496 
1 497 
1 498 
1 499 
1 500 
1 501 
1 502 
1 503 
1 504 
1 505 
1 506 
1 507 
1 508 
1 509 
1 510 
1 511 
1 512 
1 513 
1 514 
1 515 
POINT_DATA 516 
SCALARS MeanU double 1 
LOOKUP_TABLE default
0.16408 
0.20996 
0.10530 
0.10491 
0.05822 
0.07705 
0.07575 
0.12321 
0.13571 
0.12530 
0.11145 
0.09025 
0.07342 
0.14906 
0.19492 
0.10043 
0.14378 
0.13304 
0.14087 
0.09568 
0.09614 
0.17914 
0.17475 
0.13468 
0.08880 
0.15441 
0.14410 
0.19647 
0.19595 
0.25097 
0.15674 
0.15975 
0.04814 
0.18043 
0.12481 
0.07807 
0.12919 
0.12743 
0.07827 
0.10324 
0.13484 
0.13652 
0.18663 
0.09086 
0.14996 
0.10318 
0.14983 
0.14257 
0.14366 
0.15246 
0.09366 
0.14379 
0.16868 
0.12106 
0.11407 
0.12692 
0.25139 
0.20304 
0.16246 
0.12592 
0.15740 
0.12104 
0.11256 
0.17931 
0.10463 
0.12587 
0.09612 
0.19094 
0.17419 
0.12144 
0.20935 
0.10787 
0.09671 
0.13283 
0.04110 
0.18610 
0.15673 
0.16096 
0.10936 
0.13093 
0.08874 
0.14819 
0.08285 
0.13485 
0.15198 
0.10642 
0.18171 
0.17909 
0.12264 
0.15541 
0.20473 
0.13118 
0.08344 
0.12721 
0.15185 
0.11973 
0.14963 
0.13596 
0.12004 
0.17372 
0.10445 
0.12506 
0.09622 
0.08216 
0.10907 
0.12860 
0.14971 
0.14456 
0.15858 
0.13459 
0.13032 
0.29181 
0.06005 
0.16582 
0.05449 
0.08106 
0.19251 
0.17464 
0.15073 
0.05752 
0.08496 
0.20016 
0.16916 
0.20480 
0.06738 
0.18257 
0.13039 
0.12557 
0.11753 
0.12961 
0.15848 
0.12183 
0.11663 
0.07441 
0.09901 
0.23623 
0.10052 
0.15318 
0.17289 
0.11312 
0.10903 
0.12297 
0.10643 
0.06979 
0.19233 
0.17665 
0.20479 
0.07362 
0.10975 
0.11174 
0.15425 
0.13746 
0.12004 
0.10748 
0.08482 
0.11247 
0.11169 
0.09276 
0.15606 
0.26035 
0.12764 
0.07253 
0.15985 
0.07183 
0.14961 
0.08215 
0.14652 
0.16402 
0.12187 
0.11348 
0.15599 
0.07652 
0.13934 
0.06241 
0.13829 
0.04052 
0.17525 
0.09685 
0.11164 
0.09702 
0.10386 
0.10401 
0.09080 
0.10348 
0.21762 
0.16098 
0.17326 
0.05385 
0.12849 
0.07791 
0.26118 
0.09231 
0.13309 
0.19752 
0.18920 
0.15909 
0.12478 
0.10219 
0.04235 
0.19454 
0.17654 
0.09052 
0.02532 
0.07621 
0.12130 
0.13647 
0.14702 
0.10997 
0.16890 
0.03110 
0.06689 
0.30710 
0.17045 
0.11487 
0.08001 
0.19677 
0.12823 
0.13417 
0.15899 
0.08468 
0.10524 
0.13828 
0.18715 
0.07473 
0.04325 
0.14461 
0.16366 
0.16025 
0.11039 
0.13165 
0.10919 
0.08774 
0.11900 
0.12614 
0.17252 
0.07293 
0.07439 
0.16707 
0.09057 
0.12669 
0.21684 
0.07429 
0.08530 
0.09463 
0.07793 
0.15011 
0.20567 
0.25419 
0.10869 
0.08009 
0.05332 
0.05329 
0.18180 
0.07863 
0.17456 
0.16640 
0.09117 
0.10517 
0.11919 
0.09348 
0.09870 
0.14934 
0.11654 
0.16935 
0.10278 
0.16025 
0.13540 
0.05359 
0.19093 
0.13559 
0.18544 
0.14912 
0.12673 
0.16014 
0.05986 
0.08616 
0.06076 
0.13593 
0.13267 
0.06046 
0.15445 
0.14718 
0.05187 
0.09888 
0.11019 
0.09161 
0.25972 
0.14725 
0.08526 
0.13456 
0.16177 
0.10334 
0.15082 
0.13800 
0.15678 
0.09989 
0.10076 
0.13286 
0.12210 
0.12220 
0.13868 
0.07529 
0.07463 
0.15399 
0.06727 
0.16507 
0.14125 
0.19976 
0.11165 
0.15456 
0.19426 
0.10168 
0.33009 
0.18115 
0.13160 
0.13457 
0.12235 
0.08400 
0.19298 
0.17988 
0.08608 
0.11728 
0.07103 
0.17613 
0.14129 
0.13291 
0.14710 
0.21196 
0.10614 
0.11343 
0.15814 
0.19933 
0.11284 
0.20118 
0.15153 
0.11491 
0.10327 
0.18978 
0.16753 
0.08995 
0.16015 
0.13750 
0.08495 
0.07864 
0.14224 
0.12944 
0.19249 
0.12976 
0.17801 
0.13385 
0.15716 
0.17588 
0.14530 
0.09149 
0.13634 
0.07599 
0.10481 
0.10149 
0.12248 
0.14253 
0.13695 
0.07898 
0.10468 
0.11529 
0.18800 
0.25850 
0.30686 
0.10201 
0.10760 
0.04721 
0.14117 
0.08693 
0.08784 
0.17826 
0.13621 
0.09933 
0.11973 
0.12981 
0.22812 
0.10031 
0.12556 
0.15448 
0.05349 
0.16387 
0.13392 
0.08572 
0.14667 
0.14694 
0.16382 
0.15338 
0.07426 
0.12019 
0.11272 
0.10038 
0.09739 
0.16064 
0.12146 
0.17231 
0.15534 
0.17981 
0.09875 
0.06460 
0.07744 
0.13053 
0.17331 
0.15489 
0.15719 
0.21796 
0.17022 
0.13417 
0.14040 
0.26274 
0.10902 
0.16908 
0.24139 
0.11897 
0.18446 
0.20758 
0.18659 
0.13770 
0.10143 
0.02849 
0.10709 
0.17087 
0.10138 
0.18152 
0.11332 
0.15632 
0.14640 
0.08116 
0.10647 
0.04622 
0.11149 
0.13456 
0.22305 
0.27283 
0.30542 
0.12274 
0.21678 
0.12384 
0.16917 
0.13406 
0.13550 
0.18008 
0.08789 
0.08788 
0.03415 
0.10810 
0.12182 
0.06490 
0.11469 
0.09224 
0.19001 
0.10215 
0.14852 
0.02393 
0.21923 
0.12940 
0.10757 
0.18315 
0.14645 
0.16176 
0.14287 
0.10982 
0.15453 
0.10340 
0.05920 
0.07537 
0.13575 
0.14322 
0.15331 
0.08836 
0.08452 
0.06404 
0.05918 
0.13343 
0.14965 
0.13503 
0.12980 
0.11115 
0.09043 
0.09064 
0.07018 
0.13343 
0.18480 
0.11474 
0.10118 
0.11418 
0.09150 
0.05456 
0.11904 
0.11037 
0.14191 
0.19345 
0.13953 
0.10694 
0.07777 
0.07172 
0.19461 
0.11048 
0.24808 
0.10199 
0.10983 
0.14079 
0.12490 
0.11336 
0.12835 
0.12761 
0.11741 
0.08150 
0.12728 
0.20632 
0.14353 
0.08416 
0.17829 
0.15765 

 VECTORS Umean float 
0.07700 0.14350 -0.02000 
0.11200 0.13000 -0.12100 
0.02400 0.10250 0.00250 
0.01950 0.10300 0.00400 
0.00300 0.05200 -0.02600 
-0.02050 0.05100 -0.05400 
0.02100 0.07100 -0.01600 
0.01650 0.12200 -0.00500 
0.04500 0.12800 0.00300 
0.07150 0.08600 -0.05650 
-0.05000 0.09100 -0.04050 
0.01750 0.08850 0.00250 
0.02850 0.06650 0.01250 
0.07750 0.11600 -0.05250 
0.02500 0.18800 -0.04500 
0.05050 0.08200 -0.02850 
0.08700 0.10850 -0.03650 
0.03350 0.12650 0.02400 
0.02700 0.13650 0.02200 
-0.01300 0.09450 -0.00750 
-0.00800 0.07700 0.05700 
0.06450 0.11150 -0.12450 
0.02500 0.14800 -0.08950 
0.04600 0.12550 -0.01650 
0.08350 0.02350 -0.01900 
0.02700 0.15050 -0.02150 
0.03100 0.13350 0.04450 
0.03600 0.14100 0.13200 
0.10000 0.09950 -0.13600 
-0.01900 0.24550 -0.04850 
0.05950 0.09150 -0.11250 
0.09100 0.11600 -0.06150 
-0.03500 0.03250 0.00600 
0.08800 0.12450 -0.09650 
0.03600 0.11950 -0.00100 
0.04100 0.05850 -0.03150 
0.06700 0.04900 -0.09900 
-0.01000 0.10500 -0.07150 
0.01000 0.07750 -0.00450 
0.03950 0.09450 0.01300 
0.04100 0.06200 -0.11250 
-0.04850 0.07800 -0.10100 
0.12300 0.09950 -0.09900 
-0.00700 0.08800 -0.02150 
0.01600 0.13650 0.06000 
0.02300 0.09250 0.03950 
0.06150 0.13550 -0.01750 
-0.01400 0.13750 0.03500 
0.00550 0.09400 -0.10850 
0.07700 0.09000 -0.09600 
0.03150 0.08800 0.00600 
0.04000 0.11150 -0.08150 
-0.05750 0.13750 -0.07900 
-0.00600 0.12050 -0.01000 
0.06450 0.09350 0.01050 
0.07750 0.10050 -0.00100 
0.09700 0.13650 -0.18750 
0.11200 0.16750 -0.02500 
0.11250 0.09400 -0.07000 
0.04150 0.10350 -0.05850 
0.08650 0.10550 -0.07850 
0.03400 0.10150 -0.05650 
0.03950 0.08700 -0.05950 
0.11800 0.13400 0.01650 
0.02750 0.10050 -0.00950 
-0.05150 0.11100 0.02950 
0.00150 0.09400 0.02000 
0.03600 0.11050 -0.15150 
0.00550 0.14750 0.09250 
0.01600 0.10100 0.06550 
0.12000 0.12950 -0.11250 
-0.03450 0.05750 -0.08450 
0.01850 0.09100 0.02700 
0.06350 0.11600 -0.01250 
0.00700 0.03400 0.02200 
0.05500 0.17300 -0.04100 
0.07050 0.12500 0.06300 
0.00050 0.03550 -0.15700 
-0.03700 0.01700 -0.10150 
0.06650 -0.01700 -0.11150 
0.05150 0.06350 -0.03450 
0.05550 0.10950 -0.08300 
0.04950 0.05450 -0.03800 
-0.02300 0.10000 -0.08750 
0.03450 0.09000 0.11750 
0.10250 0.02600 0.01200 
0.07400 0.07100 -0.15000 
0.06650 0.04350 -0.16050 
-0.02500 0.11500 -0.03450 
0.04050 0.10150 -0.11050 
0.06200 0.10800 -0.16250 
0.04550 0.08650 -0.08750 
0.01300 0.07150 -0.04100 
0.05950 0.10850 -0.02950 
0.08650 0.12350 0.01800 
0.03350 0.10350 0.05000 
0.08600 0.10500 -0.06300 
0.09650 0.07300 -0.06200 
0.08250 0.02150 -0.08450 
0.04000 0.15050 -0.07700 
0.07400 0.04550 -0.05800 
0.05850 0.09500 0.05650 
0.01500 0.04350 -0.08450 
0.05600 0.04150 0.04350 
0.04850 0.03800 -0.09000 
0.08150 0.09500 -0.02950 
0.06350 0.09100 -0.10050 
0.05500 0.10400 -0.08400 
0.05050 0.11850 -0.09250 
0.08700 0.06850 -0.07650 
0.03600 0.09800 -0.07800 
-0.00600 0.20200 -0.21050 
0.02550 0.04500 0.03050 
0.05700 0.06500 -0.14150 
0.01350 0.04650 0.02500 
0.06250 0.04800 -0.01900 
0.06700 0.17900 0.02300 
0.10000 0.13300 -0.05300 
0.06050 0.03700 -0.13300 
-0.00000 0.05250 -0.02350 
-0.00250 0.02850 -0.08000 
0.08100 0.08800 -0.16050 
0.02400 0.14600 -0.08200 
0.07150 0.09000 -0.16950 
0.02800 0.04600 -0.04050 
0.08800 0.11800 -0.10800 
-0.01200 0.09900 -0.08400 
0.01800 0.10200 -0.07100 
0.10450 0.05050 -0.01850 
0.07150 0.09450 -0.05250 
-0.02000 0.13950 0.07250 
0.00450 0.11550 -0.03850 
0.07150 0.06950 -0.06050 
0.05600 0.04900 0.00050 
0.08400 0.04550 0.02600 
0.12550 0.15550 -0.12600 
-0.01700 0.03800 -0.09150 
0.02800 0.13200 -0.07250 
0.04000 0.13100 0.10550 
0.02000 0.08450 -0.07250 
0.03050 0.07250 -0.07550 
0.00500 0.08200 -0.09150 
0.04900 0.09200 -0.02150 
0.05100 0.04300 -0.02050 
0.05750 0.18250 -0.01950 
0.12150 0.11850 -0.04900 
0.00050 0.17700 -0.10300 
0.02050 0.01300 -0.06950 
0.06450 0.06050 -0.06500 
-0.04650 0.07550 0.06800 
0.06850 0.12250 0.06400 
0.02750 0.12950 -0.03700 
0.09000 0.07800 -0.01500 
0.06950 0.07100 -0.04100 
0.06950 -0.02450 0.04200 
0.03350 0.03350 -0.10200 
0.01400 0.10950 -0.01700 
0.02950 0.05050 -0.07200 
0.00600 0.15350 -0.02750 
0.16950 0.11100 -0.16350 
0.05550 0.10350 0.05000 
0.00100 0.04000 -0.06050 
0.09100 0.13050 0.01550 
-0.02550 -0.00450 -0.06700 
0.06750 0.12950 -0.03250 
0.01750 0.05600 -0.05750 
-0.03550 0.13150 -0.05400 
0.02050 0.11900 -0.11100 
0.07300 0.09650 -0.01450 
0.03400 0.10000 -0.04150 
-0.02400 0.14950 -0.03750 
-0.00450 0.07300 0.02250 
0.06300 0.08300 -0.09250 
0.03000 0.05450 0.00500 
0.04750 -0.12450 -0.03700 
-0.01100 0.01500 -0.03600 
-0.00600 0.17400 -0.02000 
0.04800 0.07800 0.03150 
0.01200 0.03450 -0.10550 
-0.05400 0.07900 -0.01600 
0.02700 0.09600 -0.02900 
0.04000 0.09600 0.00150 
0.04800 0.07200 -0.02750 
-0.04100 0.09500 -0.00150 
0.01900 0.21600 -0.01850 
0.10550 0.09200 -0.07950 
0.11850 0.07600 -0.10100 
0.01400 0.05200 0.00050 
0.00400 0.12800 0.01050 
-0.00050 -0.00800 -0.07750 
0.13000 0.09200 -0.20700 
0.02000 0.08950 -0.01050 
-0.06600 0.11400 0.01900 
0.09900 -0.02200 -0.16950 
0.05800 0.15300 -0.09500 
-0.04300 0.03550 -0.14900 
0.01450 0.11250 -0.05200 
0.04700 0.04800 -0.07700 
0.01550 0.03200 0.02300 
0.05100 0.11550 -0.14800 
0.00900 0.17600 -0.01050 
0.00550 0.06800 -0.05950 
0.00100 0.00800 0.02400 
0.00850 0.06200 -0.04350 
0.02600 0.11350 -0.03400 
0.09050 -0.01150 -0.10150 
0.03100 0.07350 -0.12350 
-0.02300 0.09150 0.05650 
0.03250 0.13950 -0.08950 
0.02250 0.01900 -0.01000 
0.03000 0.05050 -0.03200 
0.14000 0.04850 -0.26900 
0.06200 0.07300 -0.14100 
0.05950 0.01850 -0.09650 
0.06400 0.04750 0.00700 
0.05000 0.06600 -0.17850 
0.06300 0.10700 -0.03200 
-0.01300 0.12900 -0.03450 
0.09900 0.10000 -0.07400 
0.01300 -0.00550 -0.08350 
0.04800 0.09150 -0.02000 
0.04050 0.13200 0.00750 
0.02000 0.18600 0.00550 
0.01100 0.05350 -0.05100 
-0.02000 0.03550 -0.01450 
0.06550 0.08550 -0.09650 
0.00800 0.11100 -0.12000 
0.07150 0.11800 -0.08150 
0.06450 0.07400 -0.05050 
0.06750 0.09350 -0.06350 
-0.03250 0.08150 -0.06500 
0.05900 0.06400 0.01100 
0.05250 0.01950 -0.10500 
0.08600 0.06450 -0.06600 
0.09900 0.13750 -0.03250 
0.04350 0.00200 -0.05850 
-0.04050 -0.03450 -0.05200 
0.11300 0.09600 -0.07700 
0.06800 -0.01250 -0.05850 
0.08100 0.07900 -0.05700 
0.09000 0.17850 -0.08400 
-0.01350 0.04750 0.05550 
0.05350 0.05850 -0.03150 
0.06750 0.06600 0.00650 
-0.05800 0.05150 0.00750 
-0.04950 0.14050 0.01850 
0.05100 0.13450 -0.14700 
0.03600 0.15400 -0.19900 
0.05650 0.09250 0.00800 
0.01300 -0.07900 0.00200 
-0.03900 0.01900 -0.03100 
0.02150 0.04750 -0.01100 
0.11050 0.03900 -0.13900 
-0.00050 0.06550 0.04350 
0.01050 0.16500 0.05600 
0.08500 0.09550 -0.10650 
0.03350 0.00700 -0.08450 
0.09700 0.02300 -0.03350 
0.02500 0.03550 -0.11100 
0.06200 0.06950 -0.00800 
0.08600 -0.00650 0.04800 
0.06150 0.13600 -0.00500 
0.06300 0.08150 -0.05450 
0.12950 0.09700 -0.05000 
0.00450 0.10150 -0.01550 
-0.00900 0.09600 -0.12800 
0.10050 0.09000 -0.01150 
0.02750 0.04500 0.00950 
0.09000 0.12300 -0.11500 
0.05700 -0.11450 -0.04500 
0.07450 0.05250 -0.16150 
0.08200 0.07750 -0.09750 
0.00300 0.12400 -0.02600 
0.03650 0.15550 0.01150 
0.05350 -0.01300 -0.02350 
0.04150 0.07550 -0.00050 
0.02550 0.05500 -0.00400 
-0.03100 0.12600 0.04050 
0.02600 0.13000 0.00500 
0.05200 -0.00900 0.02950 
0.10400 -0.01250 -0.11350 
0.09450 0.08850 -0.07000 
0.02000 0.04700 0.00900 
0.05700 0.04800 -0.06500 
0.03750 0.09450 0.04250 
-0.00350 0.04450 -0.08000 
0.03700 0.15900 -0.20200 
0.13750 0.05050 -0.01500 
0.05350 -0.06500 0.01350 
0.03900 0.12500 -0.03100 
0.02150 0.14400 -0.07050 
0.04450 0.09300 0.00700 
-0.02400 0.10250 -0.10800 
0.09500 0.03000 -0.09550 
0.09500 0.12000 0.03400 
0.04950 0.08600 -0.01150 
0.05900 0.08100 0.01050 
0.03900 0.10100 -0.07700 
0.12100 -0.00650 -0.01500 
0.03100 0.10300 -0.05800 
0.01950 0.11900 -0.06850 
0.01700 0.07200 -0.01400 
0.03600 0.06500 0.00700 
-0.02200 0.15000 -0.02700 
0.04750 0.04750 0.00350 
-0.04450 0.15200 0.04650 
0.05250 0.12800 -0.02850 
0.07600 0.18100 -0.03700 
0.07000 0.07750 -0.03950 
0.10250 0.06600 -0.09500 
0.02300 0.14900 0.12250 
0.02900 0.09350 -0.02750 
0.14700 0.09750 -0.27900 
0.04200 0.09000 -0.15150 
0.07100 0.06600 -0.08900 
0.07950 0.10600 -0.02350 
0.04500 0.11200 -0.02000 
0.02450 0.06850 -0.04200 
0.02450 0.10950 -0.15700 
0.10800 0.09150 -0.11100 
0.07200 0.00400 -0.04700 
-0.01150 0.11650 -0.00700 
0.02500 0.06400 0.01800 
0.08150 0.11950 -0.10050 
0.01750 -0.01400 -0.13950 
0.09200 0.06450 -0.07100 
0.03000 0.14400 -0.00100 
0.07050 0.13600 -0.14650 
0.07700 0.04750 0.05550 
0.04650 0.08700 -0.05600 
-0.00150 0.12450 -0.09750 
0.13250 0.03600 -0.14450 
-0.02450 -0.09600 -0.05400 
0.07500 0.13200 0.13200 
-0.02600 0.10200 -0.10900 
-0.03350 0.10350 -0.03700 