# vtk DataFile Version 2.0 
Xm, Ym, Zm, Uvecs, timestep 10158 
ASCII 
 
DATASET POLYDATA POINTS 471 float 
  0.738   4.275 -72.635 
 -0.731  10.491 -71.993 
  0.389  -0.923 -70.608 
  9.224   3.768 -72.186 
 -0.933   7.646 -69.007 
 -2.321  -4.463 -71.347 
 -0.388   1.634 -67.017 
  1.981  -1.826 -70.404 
 -2.708   2.687 -68.583 
 -4.588   7.490 -67.817 
 -2.781  -0.738 -71.150 
  7.204  -4.585 -67.477 
  8.240  10.238 -72.982 
  3.992 -12.008 -73.261 
  1.087   7.236 -75.350 
  4.761   1.345 -75.192 
 -9.248   5.488 -70.005 
  4.979   3.401 -68.130 
  5.564   3.317 -64.980 
 -7.891   0.477 -69.158 
 -7.214   6.633 -72.636 
 -1.140  -2.700 -71.488 
  7.841  -8.907 -72.671 
  0.647   5.640 -65.895 
 -3.006   3.220 -71.456 
 -0.006  11.147 -71.529 
  2.356  -2.257 -67.603 
  1.830  -6.614 -70.668 
  1.208   6.364 -71.459 
  2.474   8.950 -69.747 
 -8.957  -7.209 -74.069 
  2.156   7.675 -67.205 
 13.531   3.649 -68.074 
 -7.428  -4.905 -71.505 
  3.262  -7.123 -74.875 
  2.162  -0.312 -68.167 
  1.204   9.470 -73.120 
 -2.248  -3.350 -71.275 
 -5.584   0.155 -76.263 
  5.232  -0.882 -67.287 
  8.824  -3.454 -69.440 
 -0.224   8.682 -72.833 
 -7.341   2.787 -74.077 
 -8.558  -3.755 -73.968 
 -1.369   3.877 -67.757 
 -0.648  -7.492 -70.436 
  3.408   7.842 -73.599 
  6.500  -6.901 -72.007 
  5.979  -0.141 -68.811 
  4.505   0.327 -71.084 
  9.886   9.850 -68.399 
  5.202   2.333 -67.099 
 -7.739  -4.642 -65.992 
 -5.115   4.494 -74.162 
 -4.204  -4.061 -68.978 
 -9.769 -10.286 -72.232 
-13.985  -3.700 -73.885 
-13.704   8.883 -69.462 
 -7.898   8.741 -70.017 
 14.509   8.824 -71.019 
 -0.352  -6.262 -72.049 
  4.361  10.948 -67.216 
  4.604 -10.201 -70.281 
 -1.121   6.457 -67.558 
-10.323   4.023 -68.416 
 -8.663   9.803 -72.367 
 -4.923   6.662 -68.289 
 -8.719   8.542 -65.830 
  1.844   1.038 -70.721 
 16.383   4.358 -70.016 
 -8.973   8.549 -72.524 
  9.605  -1.937 -71.809 
  1.244  -6.168 -74.832 
 -6.666  11.595 -64.374 
  4.386  -6.468 -72.202 
  6.945   2.450 -66.923 
  4.200   6.181 -70.680 
 -3.522  -8.686 -68.441 
-14.174  -4.508 -77.546 
  6.310   6.940 -65.262 
 -8.826  10.271 -67.494 
  7.169   1.271 -65.436 
 -1.140   8.290 -67.991 
  9.802   0.593 -65.456 
-13.914   5.772 -66.590 
  7.996  12.197 -70.433 
 -6.316 -12.339 -67.439 
 -6.463   1.927 -68.422 
  6.489   4.024 -74.291 
  2.482  12.147 -71.611 
-10.686   3.029 -62.529 
 -1.807  12.650 -63.423 
 13.815   4.851 -71.263 
 -5.508  -2.902 -70.066 
-11.650  12.195 -66.775 
 -4.194  -5.922 -68.599 
 11.548   1.499 -69.255 
  1.509   5.141 -66.833 
-13.849   9.782 -70.102 
-11.211  -1.691 -75.560 
 -5.534  -3.024 -68.650 
  8.718  12.717 -68.052 
  1.319 -11.595 -71.319 
 12.557   2.590 -67.610 
 11.582   8.646 -69.040 
 -2.202 -12.248 -69.274 
-10.073   3.049 -67.900 
  1.385   5.896 -65.941 
 -1.526   1.829 -75.412 
-12.858   5.752 -69.216 
-10.102   6.357 -76.558 
  3.325  -9.617 -63.002 
 -9.037  13.244 -64.821 
 10.770   3.721 -68.317 
  1.708  -5.191 -63.270 
  1.494   1.848 -75.055 
 -8.314 -10.265 -67.556 
 11.770  -1.959 -68.417 
 -7.545  12.867 -63.075 
  8.452  -6.434 -65.409 
  5.354  -2.006 -67.385 
  8.596  -0.772 -71.941 
  3.582   5.529 -66.858 
 -0.343  10.493 -62.808 
  6.524  -2.159 -75.740 
  1.453  -6.813 -67.372 
 -3.410   5.945 -63.395 
  4.627  -0.881 -66.933 
  3.232   6.533 -66.165 
 13.079   5.540 -67.843 
 16.292   0.708 -68.784 
 -0.592  -2.714 -63.080 
 12.108 -11.854 -71.374 
-11.825   0.273 -69.506 
 -4.418  12.335 -69.887 
  1.984   3.024 -63.293 
  2.537   3.032 -62.761 
  2.299   1.202 -76.746 
  3.572 -10.500 -63.439 
  8.638   2.611 -67.904 
 -1.621  -2.053 -64.424 
 14.643   2.238 -71.459 
  3.616  11.073 -71.892 
 12.383  -4.045 -70.111 
  4.447   7.319 -62.152 
  1.192   5.165 -62.468 
 14.704   5.861 -67.450 
 -2.632  -0.411 -65.662 
  3.768   0.164 -71.466 
-12.841   8.325 -75.055 
  4.326   6.237 -72.598 
 13.168  -2.333 -70.191 
  1.623  -3.581 -63.835 
  0.842  -6.591 -64.536 
  8.057   2.720 -65.990 
 -8.636  10.541 -66.007 
 13.855   2.093 -68.309 
 10.623   2.374 -65.641 
  1.121  -3.701 -66.263 
 11.112  -7.262 -70.237 
-12.599   7.439 -66.054 
  3.761  -8.120 -68.821 
  9.272   2.700 -70.202 
  9.389   7.282 -63.788 
  5.856   3.750 -69.914 
-14.588  11.436 -71.410 
 -5.547  -7.954 -73.811 
 12.204 -11.460 -68.607 
 -0.982   5.523 -70.423 
 -0.540  11.182 -72.829 
 13.743 -12.489 -69.957 
 -2.994   4.609 -64.731 
  4.408  -2.393 -68.777 
-13.840  -5.684 -73.002 
  7.381   3.912 -72.044 
 -5.484  -9.784 -73.884 
  1.236   5.377 -66.850 
  7.770  -1.515 -70.172 
 -8.595 -11.946 -75.139 
 15.036   5.571 -67.800 
-13.521  -5.476 -74.236 
  8.259  -0.645 -71.912 
  6.494 -11.818 -71.734 
 -8.255  -5.769 -72.970 
 -7.460   5.398 -75.469 
  2.644  -5.705 -66.184 
  2.234  10.468 -67.204 
 13.922   5.547 -66.772 
  8.822 -12.172 -71.441 
 -1.725  10.944 -64.985 
 -7.476   0.332 -65.385 
  0.850  -2.348 -73.712 
 11.272  -1.595 -69.407 
 -0.452   1.660 -76.397 
 11.581  11.672 -69.119 
  3.890  -8.179 -62.195 
 -8.770  -7.154 -71.017 
-10.485   8.989 -66.897 
 15.357  -4.266 -69.185 
 16.479  -1.022 -67.604 
  7.551  10.536 -72.252 
 16.537   3.359 -68.751 
  6.349  12.360 -64.710 
 13.277   7.503 -67.398 
 -1.011  11.563 -67.540 
 -2.591  -6.266 -64.723 
 -9.789  10.562 -71.321 
-10.887  -8.572 -73.508 
  3.341  -7.591 -65.578 
 -3.039  -5.261 -69.991 
  0.998  -5.488 -70.935 
 13.608  -5.303 -69.084 
  4.061  -4.920 -64.864 
-12.759  -0.817 -65.374 
 15.030  10.352 -63.674 
 12.013   4.934 -74.143 
 -3.529   9.456 -68.293 
  5.805   6.281 -62.587 
  2.767 -12.833 -67.877 
 -0.424   8.895 -69.950 
-11.312  -4.766 -77.721 
 -2.822  -7.611 -62.358 
  9.650   8.648 -74.823 
  3.838   8.227 -66.341 
  8.611  12.487 -64.729 
 -9.820  -7.081 -68.360 
 -6.657  10.174 -60.861 
  7.602  -3.637 -75.391 
 15.964   7.548 -68.428 
-10.058  -0.685 -73.141 
 -3.869  -0.255 -68.303 
 -0.706   5.823 -59.901 
 10.200   8.122 -61.245 
-10.403   4.890 -62.224 
 13.437  -4.661 -71.608 
  5.450  10.812 -66.163 
 -9.933  10.611 -69.121 
-13.846  -1.627 -69.761 
-10.421 -10.912 -72.426 
  2.825   3.845 -65.447 
 -6.941  -3.861 -57.250 
  9.108   9.494 -69.782 
 16.009   6.684 -65.477 
 11.671   9.468 -65.286 
-12.998  10.274 -71.834 
 -3.966  -7.005 -72.239 
-13.331  10.311 -66.876 
  9.567  -3.792 -66.321 
  4.498  10.127 -65.790 
  0.007   9.384 -60.463 
-12.984   4.056 -70.909 
 12.197  12.198 -67.459 
-12.000 -11.095 -69.487 
 11.215  -0.706 -66.907 
 -9.482   9.090 -74.106 
 10.028   0.795 -74.007 
 15.433   4.670 -71.730 
 -9.349   3.340 -72.222 
  5.117   9.147 -66.219 
 13.469 -12.747 -68.454 
  9.860   6.626 -65.660 
  5.017 -12.099 -71.870 
  4.091 -12.152 -75.261 
 -6.695   5.474 -70.013 
 11.669  -6.280 -71.791 
 12.910  10.105 -72.725 
  6.888 -10.921 -69.687 
-13.078   3.349 -77.066 
 17.014  -0.077 -66.977 
 16.807   4.703 -66.373 
 12.598  -3.265 -69.859 
  1.204   3.260 -75.148 
 12.097  -2.519 -76.331 
-10.679  -4.982 -70.596 
  0.907  -5.607 -69.006 
 -2.515  10.972 -63.735 
  2.240   5.822 -74.317 
 12.741  -1.788 -69.323 
 -2.524 -12.098 -75.357 
 -3.428  -8.476 -70.643 
  6.178  12.677 -69.314 
  5.573  -8.772 -69.644 
 -4.525 -12.094 -69.993 
  4.722  -4.803 -72.519 
 13.826  -3.224 -70.280 
 12.055  11.679 -67.336 
 12.810  10.604 -69.569 
 -8.390 -11.422 -69.468 
  3.014  -8.427 -64.504 
 -4.632   0.523 -75.193 
-11.787   3.181 -74.918 
  3.128   8.332 -75.201 
 12.752  -5.018 -66.275 
 -3.418 -11.716 -69.630 
 -2.490   1.127 -67.043 
 -6.809   8.492 -72.238 
 -7.440  -1.554 -69.451 
 -4.581   5.895 -60.083 
 -7.612  -6.979 -63.281 
  4.498  -9.934 -73.531 
  0.805   0.758 -65.053 
  8.948 -10.276 -67.847 
 -1.941 -11.287 -64.797 
 -0.044  -3.596 -70.824 
 -6.434 -11.090 -67.368 
 18.548  -9.291 -69.572 
  8.325   7.400 -69.665 
 13.406  10.175 -64.140 
-12.240   9.145 -63.723 
 -9.852   7.501 -63.481 
 -9.843   2.763 -71.017 
 -4.062 -12.945 -66.238 
  1.848  -6.721 -67.010 
  7.853   4.869 -74.335 
 -3.189   5.178 -63.020 
-12.465  11.838 -66.417 
 -1.618  -8.841 -73.285 
  9.862  -8.409 -64.832 
  7.900 -10.230 -65.112 
 -2.318  -8.506 -60.376 
-11.810  -6.664 -71.717 
  1.238   1.494 -62.709 
 15.982  -4.656 -64.577 
 -6.090  -8.229 -67.581 
-11.304   7.819 -70.601 
  2.263   7.556 -65.024 
-11.070   2.139 -63.918 
 15.458   2.510 -69.044 
 -8.686   2.003 -66.061 
 10.098  -2.996 -64.875 
 12.888  -4.170 -63.764 
  5.069   7.640 -63.960 
 -1.863 -11.322 -70.524 
 -3.785   8.851 -65.077 
 18.141  -7.321 -68.036 
  6.280   8.519 -62.849 
  4.859  -2.688 -67.247 
 13.583  -9.331 -64.736 
  5.879  -2.063 -62.052 
 -7.537  -8.155 -68.713 
  7.025 -11.797 -64.977 
  0.631   5.946 -67.814 
 -7.297 -11.745 -75.703 
-10.947  -9.270 -63.558 
  0.256  -1.119 -74.591 
  6.238   6.989 -71.572 
 -8.195 -10.448 -64.205 
  3.325  -4.540 -59.360 
 -3.331 -11.080 -75.576 
-13.646  12.441 -72.740 
  8.060   0.211 -63.574 
  3.397  11.448 -60.983 
  2.458  -9.085 -74.323 
 -5.246  12.073 -69.261 
  7.419  -5.885 -60.954 
  5.050   2.482 -74.915 
 16.627  -9.766 -68.209 
 -4.943  12.111 -63.182 
 -1.152   2.691 -60.251 
  4.595   4.714 -60.882 
 -2.701   1.291 -59.279 
  6.603   0.504 -70.738 
  4.277   0.988 -71.687 
  1.108  10.454 -61.695 
 13.701  -7.689 -68.595 
 11.004  -0.582 -62.502 
 -6.531  -4.786 -74.840 
  5.064  -7.287 -74.167 
 -5.641  -3.517 -66.791 
-10.451  10.919 -64.789 
  8.276  11.756 -63.352 
  3.113  -0.051 -71.085 
 -8.091  -2.653 -73.952 
 13.276  12.128 -67.126 
  8.104   8.503 -69.459 
-13.555   1.710 -70.611 
 14.630   7.571 -67.241 
 -7.303   0.207 -63.074 
 -5.754  11.625 -61.649 
 16.431   6.512 -69.653 
  4.919  -9.934 -62.599 
  7.418   5.993 -74.444 
  4.509   4.348 -65.010 
 12.227   0.480 -57.688 
 -9.158  -1.559 -77.779 
  2.333  -1.597 -64.757 
-11.826   4.095 -75.668 
 -3.215   4.784 -57.959 
  2.891   0.522 -64.008 
 -5.867   0.638 -73.663 
 14.820   3.462 -71.793 
 11.958   6.384 -69.379 
 12.276 -12.215 -60.444 
  7.820 -11.349 -60.539 
  8.002  -1.746 -63.264 
 12.400   5.767 -63.796 
 -9.904   0.919 -75.856 
  6.767  11.656 -70.654 
-12.840  11.253 -65.064 
 16.223  -7.586 -70.299 
  1.266  -7.983 -70.362 
 -3.306 -10.310 -65.059 
 10.066   2.258 -76.948 
 -9.552 -10.438 -64.826 
 12.963  -1.942 -73.499 
 -3.148 -10.618 -60.206 
 -9.728   2.322 -71.136 
  7.143   0.354 -59.888 
  6.102  -9.855 -72.677 
-13.831  -2.776 -73.141 
 -3.184   1.115 -76.865 
 13.858   9.848 -72.204 
-11.487   6.258 -68.694 
 -3.393   3.886 -65.386 
 -0.804   1.927 -70.034 
 -9.687  -7.835 -63.594 
  8.063  10.802 -60.650 
-12.774   0.009 -74.623 
 16.804   1.817 -65.502 
 -5.512 -11.153 -68.614 
  0.173   3.272 -70.669 
 14.142   9.985 -62.493 
 10.890  -5.460 -70.296 
  6.190  -4.064 -70.548 
-12.136   1.463 -66.061 
 -6.925  11.828 -71.381 
  3.148  10.707 -59.572 
  5.140  -7.752 -72.997 
  1.574 -12.600 -69.551 
 12.669   3.963 -61.346 
 12.811   8.791 -62.282 
  9.094  -9.548 -74.479 
 16.441  -4.548 -71.107 
-14.637  -1.347 -73.787 
  0.500   7.527 -74.798 
 13.084   4.479 -62.514 
 -1.168 -10.274 -71.427 
 14.163   2.327 -64.784 
 -8.684  11.600 -70.609 
 -7.635   0.415 -62.504 
 12.969  12.251 -67.629 
 14.239  -6.981 -67.651 
 -7.464   7.474 -65.996 
 16.851 -10.742 -78.416 
 -4.752   7.370 -61.688 
  1.467   6.818 -72.519 
  1.339   3.095 -65.703 
 -3.914  -5.828 -74.361 
  7.515  -7.030 -72.370 
  8.862   4.398 -71.579 
  0.900  -2.674 -72.849 
 -9.155   5.457 -66.260 
 14.357  10.628 -70.272 
 -5.230   2.087 -66.326 
  5.201   2.541 -66.576 
 17.122  -6.050 -69.102 
 14.643  11.458 -73.148 
  3.498   5.452 -67.971 
 10.451 -12.837 -68.186 
 10.382 -13.276 -68.932 
 -1.686  -8.335 -71.882 
  2.638 -12.681 -62.426 
 13.156  10.530 -73.838 
 16.384   8.217 -67.659 
 -5.129  -9.232 -71.142 
 -1.853   1.476 -62.569 
 12.967  -0.825 -73.804 
 -8.791   3.080 -64.101 
 -7.351  -0.535 -70.563 
 -6.968  -4.226 -73.764 
 17.406   8.407 -71.757 

 VERTICES 471 942 
1 0 
1 1 
1 2 
1 3 
1 4 
1 5 
1 6 
1 7 
1 8 
1 9 
1 10 
1 11 
1 12 
1 13 
1 14 
1 15 
1 16 
1 17 
1 18 
1 19 
1 20 
1 21 
1 22 
1 23 
1 24 
1 25 
1 26 
1 27 
1 28 
1 29 
1 30 
1 31 
1 32 
1 33 
1 34 
1 35 
1 36 
1 37 
1 38 
1 39 
1 40 
1 41 
1 42 
1 43 
1 44 
1 45 
1 46 
1 47 
1 48 
1 49 
1 50 
1 51 
1 52 
1 53 
1 54 
1 55 
1 56 
1 57 
1 58 
1 59 
1 60 
1 61 
1 62 
1 63 
1 64 
1 65 
1 66 
1 67 
1 68 
1 69 
1 70 
1 71 
1 72 
1 73 
1 74 
1 75 
1 76 
1 77 
1 78 
1 79 
1 80 
1 81 
1 82 
1 83 
1 84 
1 85 
1 86 
1 87 
1 88 
1 89 
1 90 
1 91 
1 92 
1 93 
1 94 
1 95 
1 96 
1 97 
1 98 
1 99 
1 100 
1 101 
1 102 
1 103 
1 104 
1 105 
1 106 
1 107 
1 108 
1 109 
1 110 
1 111 
1 112 
1 113 
1 114 
1 115 
1 116 
1 117 
1 118 
1 119 
1 120 
1 121 
1 122 
1 123 
1 124 
1 125 
1 126 
1 127 
1 128 
1 129 
1 130 
1 131 
1 132 
1 133 
1 134 
1 135 
1 136 
1 137 
1 138 
1 139 
1 140 
1 141 
1 142 
1 143 
1 144 
1 145 
1 146 
1 147 
1 148 
1 149 
1 150 
1 151 
1 152 
1 153 
1 154 
1 155 
1 156 
1 157 
1 158 
1 159 
1 160 
1 161 
1 162 
1 163 
1 164 
1 165 
1 166 
1 167 
1 168 
1 169 
1 170 
1 171 
1 172 
1 173 
1 174 
1 175 
1 176 
1 177 
1 178 
1 179 
1 180 
1 181 
1 182 
1 183 
1 184 
1 185 
1 186 
1 187 
1 188 
1 189 
1 190 
1 191 
1 192 
1 193 
1 194 
1 195 
1 196 
1 197 
1 198 
1 199 
1 200 
1 201 
1 202 
1 203 
1 204 
1 205 
1 206 
1 207 
1 208 
1 209 
1 210 
1 211 
1 212 
1 213 
1 214 
1 215 
1 216 
1 217 
1 218 
1 219 
1 220 
1 221 
1 222 
1 223 
1 224 
1 225 
1 226 
1 227 
1 228 
1 229 
1 230 
1 231 
1 232 
1 233 
1 234 
1 235 
1 236 
1 237 
1 238 
1 239 
1 240 
1 241 
1 242 
1 243 
1 244 
1 245 
1 246 
1 247 
1 248 
1 249 
1 250 
1 251 
1 252 
1 253 
1 254 
1 255 
1 256 
1 257 
1 258 
1 259 
1 260 
1 261 
1 262 
1 263 
1 264 
1 265 
1 266 
1 267 
1 268 
1 269 
1 270 
1 271 
1 272 
1 273 
1 274 
1 275 
1 276 
1 277 
1 278 
1 279 
1 280 
1 281 
1 282 
1 283 
1 284 
1 285 
1 286 
1 287 
1 288 
1 289 
1 290 
1 291 
1 292 
1 293 
1 294 
1 295 
1 296 
1 297 
1 298 
1 299 
1 300 
1 301 
1 302 
1 303 
1 304 
1 305 
1 306 
1 307 
1 308 
1 309 
1 310 
1 311 
1 312 
1 313 
1 314 
1 315 
1 316 
1 317 
1 318 
1 319 
1 320 
1 321 
1 322 
1 323 
1 324 
1 325 
1 326 
1 327 
1 328 
1 329 
1 330 
1 331 
1 332 
1 333 
1 334 
1 335 
1 336 
1 337 
1 338 
1 339 
1 340 
1 341 
1 342 
1 343 
1 344 
1 345 
1 346 
1 347 
1 348 
1 349 
1 350 
1 351 
1 352 
1 353 
1 354 
1 355 
1 356 
1 357 
1 358 
1 359 
1 360 
1 361 
1 362 
1 363 
1 364 
1 365 
1 366 
1 367 
1 368 
1 369 
1 370 
1 371 
1 372 
1 373 
1 374 
1 375 
1 376 
1 377 
1 378 
1 379 
1 380 
1 381 
1 382 
1 383 
1 384 
1 385 
1 386 
1 387 
1 388 
1 389 
1 390 
1 391 
1 392 
1 393 
1 394 
1 395 
1 396 
1 397 
1 398 
1 399 
1 400 
1 401 
1 402 
1 403 
1 404 
1 405 
1 406 
1 407 
1 408 
1 409 
1 410 
1 411 
1 412 
1 413 
1 414 
1 415 
1 416 
1 417 
1 418 
1 419 
1 420 
1 421 
1 422 
1 423 
1 424 
1 425 
1 426 
1 427 
1 428 
1 429 
1 430 
1 431 
1 432 
1 433 
1 434 
1 435 
1 436 
1 437 
1 438 
1 439 
1 440 
1 441 
1 442 
1 443 
1 444 
1 445 
1 446 
1 447 
1 448 
1 449 
1 450 
1 451 
1 452 
1 453 
1 454 
1 455 
1 456 
1 457 
1 458 
1 459 
1 460 
1 461 
1 462 
1 463 
1 464 
1 465 
1 466 
1 467 
1 468 
1 469 
1 470 
POINT_DATA 471 
SCALARS MeanU double 1 
LOOKUP_TABLE default
0.17023 
0.06132 
0.18586 
0.26933 
0.10860 
0.13732 
0.13815 
0.20964 
0.17649 
0.10727 
0.16677 
0.20858 
0.09948 
0.12986 
0.08571 
0.20197 
0.16947 
0.27445 
0.23162 
0.20014 
0.22701 
0.16573 
0.11146 
0.14253 
0.24842 
0.09127 
0.27845 
0.18567 
0.14927 
0.05480 
0.09592 
0.05946 
0.12403 
0.14739 
0.13077 
0.23686 
0.09348 
0.14477 
0.13827 
0.08411 
0.31749 
0.05256 
0.15394 
0.08739 
0.20535 
0.10947 
0.09522 
0.16506 
0.20758 
0.24155 
0.06328 
0.20507 
0.20097 
0.21559 
0.23384 
0.18793 
0.22097 
0.17471 
0.11632 
0.16901 
0.15239 
0.07503 
0.12875 
0.17666 
0.14820 
0.15465 
0.14683 
0.08232 
0.14359 
0.14091 
0.21316 
0.31142 
0.11671 
0.13327 
0.06311 
0.17890 
0.15319 
0.05507 
0.11311 
0.21578 
0.12489 
0.17033 
0.10316 
0.20944 
0.16362 
0.05049 
0.13297 
0.21908 
0.20835 
0.14899 
0.13492 
0.11494 
0.18824 
0.22795 
0.10632 
0.14373 
0.12290 
0.12872 
0.24315 
0.16183 
0.20465 
0.18957 
0.10569 
0.04714 
0.08372 
0.04619 
0.20988 
0.11484 
0.23067 
0.18457 
0.11746 
0.05607 
0.11749 
0.14372 
0.25139 
0.19797 
0.16458 
0.20477 
0.14990 
0.23153 
0.15556 
0.31535 
0.09195 
0.06174 
0.22072 
0.12836 
0.15975 
0.08779 
0.11629 
0.07706 
0.12672 
0.31709 
0.09146 
0.28022 
0.08810 
0.18411 
0.13292 
0.18751 
0.09304 
0.15795 
0.29778 
0.12295 
0.10464 
0.20048 
0.10066 
0.17252 
0.14396 
0.17299 
0.24816 
0.11593 
0.10691 
0.14533 
0.26127 
0.21409 
0.11952 
0.08065 
0.11446 
0.09957 
0.27936 
0.10659 
0.15106 
0.16542 
0.20077 
0.07229 
0.32101 
0.22226 
0.15844 
0.09203 
0.16343 
0.07052 
0.14456 
0.13431 
0.27340 
0.17226 
0.24412 
0.07767 
0.08799 
0.27927 
0.07253 
0.15603 
0.13166 
0.29413 
0.12915 
0.10963 
0.14242 
0.22806 
0.07548 
0.13158 
0.11028 
0.13077 
0.19064 
0.14454 
0.18664 
0.22817 
0.12195 
0.07353 
0.19557 
0.06775 
0.14559 
0.10446 
0.06276 
0.15209 
0.09876 
0.17512 
0.15161 
0.32602 
0.11483 
0.19165 
0.09909 
0.24819 
0.15879 
0.24318 
0.30909 
0.16757 
0.06622 
0.26116 
0.07915 
0.04854 
0.16148 
0.10708 
0.11241 
0.21840 
0.18278 
0.07748 
0.09101 
0.21904 
0.15884 
0.27678 
0.23093 
0.14653 
0.24592 
0.15476 
0.11401 
0.19297 
0.15308 
0.05840 
0.07355 
0.16552 
0.10901 
0.18986 
0.17095 
0.05648 
0.09427 
0.05395 
0.21161 
0.24207 
0.13855 
0.33073 
0.06196 
0.13021 
0.11621 
0.17276 
0.11920 
0.21067 
0.17817 
0.24807 
0.12155 
0.21063 
0.05234 
0.09955 
0.12101 
0.11763 
0.09878 
0.19585 
0.17161 
0.23498 
0.08586 
0.13590 
0.14649 
0.13099 
0.14622 
0.20572 
0.27518 
0.04512 
0.30198 
0.13219 
0.23400 
0.13883 
0.12612 
0.24095 
0.10671 
0.12654 
0.14199 
0.20805 
0.12742 
0.11186 
0.18165 
0.16723 
0.15285 
0.14767 
0.12212 
0.08578 
0.18904 
0.12446 
0.13745 
0.17874 
0.21458 
0.13172 
0.28560 
0.15314 
0.20262 
0.15067 
0.13952 
0.18677 
0.11453 
0.04182 
0.07793 
0.10871 
0.13353 
0.08038 
0.16841 
0.04683 
0.17869 
0.24985 
0.09542 
0.07421 
0.19117 
0.09825 
0.16133 
0.17894 
0.05115 
0.10702 
0.05341 
0.11093 
0.11369 
0.10804 
0.23171 
0.14361 
0.19980 
0.28876 
0.20166 
0.08138 
0.10869 
0.09040 
0.14495 
0.08892 
0.14357 
0.08716 
0.22193 
0.17378 
0.08349 
0.11563 
0.08134 
0.14462 
0.15914 
0.11289 
0.13248 
0.21813 
0.11805 
0.13116 
0.24581 
0.12789 
0.11178 
0.08968 
0.30812 
0.20006 
0.08427 
0.10265 
0.10741 
0.16212 
0.09922 
0.19310 
0.20498 
0.14884 
0.13190 
0.15337 
0.16163 
0.13046 
0.31059 
0.09102 
0.05985 
0.18602 
0.12509 
0.19434 
0.05675 
0.21720 
0.13224 
0.16938 
0.12250 
0.21945 
0.07071 
0.12011 
0.20733 
0.11953 
0.10662 
0.24384 
0.07964 
0.18668 
0.13496 
0.21486 
0.14132 
0.10260 
0.05645 
0.04126 
0.25298 
0.07053 
0.15695 
0.09167 
0.07898 
0.12442 
0.11188 
0.21129 
0.21641 
0.07621 
0.27014 
0.11393 
0.22765 
0.11447 
0.10469 
0.20736 
0.11441 
0.23177 
0.08422 
0.14032 
0.19469 
0.11510 
0.05825 
0.09305 
0.15010 
0.06327 
0.17609 
0.32064 
0.27940 
0.34426 
0.24413 
0.12309 
0.11146 
0.10240 
0.13235 
0.06928 
0.04424 
0.10223 
0.12838 
0.18489 
0.07741 
0.06028 
0.08074 
0.12683 
0.11096 
0.20801 
0.21194 
0.10960 
0.10638 
0.07788 
0.20047 
0.20365 
0.12577 
0.18069 
0.20717 
0.20316 
0.19432 
0.10604 
0.15102 
0.12324 
0.19297 
0.12034 
0.14148 
0.18326 
0.07238 
0.09212 
0.09842 
0.09002 
0.17569 
0.20195 
0.17598 
0.20671 
0.24044 
0.15974 
0.26858 
0.11872 
0.16496 

 VECTORS Umean float 
0.04750 0.07450 -0.14550 
-0.04550 0.04000 0.00950 
0.08550 0.14350 -0.08150 
0.16150 0.04150 -0.21150 
-0.06300 0.06000 -0.06500 
-0.00800 0.13000 -0.04350 
0.02750 0.13350 -0.02250 
0.11900 0.12500 -0.11900 
0.03650 0.11700 -0.12700 
-0.06050 0.07600 -0.04550 
-0.00450 0.12700 -0.10800 
0.13350 0.07800 -0.14000 
0.05000 -0.01600 -0.08450 
0.10150 0.08100 0.00050 
-0.00350 0.07650 -0.03850 
0.09750 0.07100 -0.16200 
0.03450 0.11300 -0.12150 
0.07500 0.11000 -0.24000 
-0.01800 0.14650 -0.17850 
0.05450 0.14650 -0.12500 
0.04700 0.14350 -0.16950 
0.01050 0.15100 -0.06750 
0.08250 -0.02400 -0.07100 
0.05100 0.06250 -0.11750 
0.08250 0.17350 -0.15750 
-0.07650 0.04150 -0.02750 
0.16100 0.10300 -0.20250 
0.12600 0.07250 -0.11550 
-0.00850 0.01250 -0.14850 
-0.05350 -0.00450 0.01100 
0.03800 0.06400 -0.06050 
-0.01300 -0.00150 -0.05800 
0.02550 0.08950 -0.08200 
0.06050 0.06150 -0.11950 
0.09500 0.02050 -0.08750 
0.14000 0.18900 -0.02800 
-0.01150 0.07200 -0.05850 
0.00300 0.14200 -0.02800 
0.01200 0.13650 -0.01850 
0.05200 0.00900 -0.06550 
0.15900 0.08750 -0.26050 
0.03350 0.03800 0.01400 
0.12250 0.07050 -0.06100 
0.03450 0.03450 -0.07250 
0.08150 0.04900 -0.18200 
0.04200 0.05550 -0.08450 
0.08200 0.04050 -0.02650 
0.06700 0.04950 -0.14250 
0.07150 0.02700 -0.19300 
0.13400 0.13650 -0.14750 
0.04950 -0.03800 -0.01050 
0.03000 0.08650 -0.18350 
0.14850 0.10700 -0.08300 
0.07250 0.11100 -0.17000 
0.09100 0.10950 -0.18550 
0.15100 0.10750 -0.03100 
-0.02450 0.19500 -0.10100 
0.00100 0.12050 -0.12650 
-0.02700 0.08050 -0.07950 
0.06500 0.05500 -0.14600 
0.07400 0.07800 -0.10800 
-0.02050 0.04900 0.05300 
0.07900 0.05800 -0.08350 
0.09000 0.08650 -0.12500 
0.13650 0.05250 -0.02400 
0.00300 0.12000 -0.09750 
-0.00100 0.08600 -0.11900 
-0.03650 0.04000 -0.06200 
0.13050 0.02250 -0.05550 
0.07250 0.10600 -0.05800 
-0.03450 0.15700 -0.14000 
0.10750 0.06700 -0.28450 
0.06900 0.01450 -0.09300 
-0.08400 0.09700 0.03600 
0.06300 0.00350 0.00150 
-0.01200 0.04950 -0.17150 
0.02000 0.07600 -0.13150 
-0.02900 -0.01850 -0.04300 
-0.03700 0.09500 -0.04900 
0.17350 0.11750 -0.05150 
-0.01500 0.06000 -0.10850 
-0.00300 0.08600 -0.14700 
-0.07950 0.06350 0.01700 
0.07600 0.13700 -0.13900 
0.03900 0.13700 0.08050 
-0.00750 -0.02850 0.04100 
0.10850 0.07350 0.02250 
0.09450 0.16900 -0.10250 
0.07800 0.05400 -0.18550 
-0.12900 -0.07350 -0.01250 
0.09400 0.09650 -0.00750 
-0.06900 0.03950 0.08300 
0.01300 0.16050 -0.09750 
0.03800 0.11000 -0.19600 
0.06550 0.08350 0.00650 
0.01850 0.12500 -0.06850 
-0.05300 0.05800 -0.09450 
0.03200 0.03200 -0.12050 
0.08100 0.15600 -0.16800 
0.01250 0.10950 -0.11850 
0.02550 0.07550 -0.18850 
-0.07450 -0.09600 0.14550 
0.08550 0.06200 0.00400 
0.00400 0.04150 -0.02200 
0.01800 0.05500 -0.06050 
0.04050 0.02200 -0.00300 
0.14850 0.14400 -0.03550 
0.01350 0.05100 -0.10200 
0.11150 0.08850 -0.18150 
0.16600 0.05450 -0.05950 
0.04500 0.06550 -0.08650 
-0.02550 0.02850 -0.04100 
-0.03700 0.11150 -0.00150 
0.11250 -0.01850 -0.08750 
0.00700 -0.04350 -0.24750 
0.02150 0.09100 -0.17450 
0.11900 0.09950 0.05500 
0.10100 0.02000 -0.17700 
-0.04400 0.11500 0.08550 
0.11500 0.05050 -0.19450 
0.04500 -0.01100 -0.14850 
0.11100 0.10850 -0.27450 
0.01850 0.00350 -0.09000 
-0.02500 0.04750 -0.03050 
0.05050 0.03500 -0.21200 
-0.00700 0.02350 -0.12600 
0.11500 0.09600 -0.05550 
0.06350 0.02550 -0.05500 
0.05050 0.03700 -0.09800 
0.02800 0.06950 -0.01800 
-0.01450 0.11850 -0.04250 
0.14100 0.11200 -0.26100 
0.03900 -0.03150 -0.07650 
0.19100 0.10000 -0.17900 
-0.07150 0.04500 0.02500 
0.04200 0.04100 -0.17450 
-0.02000 0.02750 -0.12850 
0.12400 0.10850 -0.08950 
-0.02850 0.06650 0.05850 
0.02900 0.00900 -0.15500 
0.08900 0.08550 -0.27100 
0.01300 0.12100 -0.01750 
-0.06800 -0.07950 -0.00250 
0.07650 0.05800 -0.17600 
0.06250 0.04750 -0.06300 
-0.02450 0.09100 -0.14450 
0.05350 0.09500 -0.09400 
0.10650 0.07550 -0.11350 
0.18500 0.15750 -0.05050 
0.04000 0.10400 -0.03200 
0.05250 0.03050 -0.08800 
0.04450 0.08950 -0.10550 
0.07750 0.00200 -0.24950 
-0.01100 0.07150 -0.20150 
-0.00150 0.00150 -0.11950 
-0.00950 0.06850 -0.04150 
-0.02150 0.09600 -0.05850 
0.00500 0.05400 -0.08350 
0.09850 0.05050 -0.25650 
0.08800 0.01400 -0.05850 
-0.06750 0.11000 -0.07850 
0.13450 0.09600 0.00750 
0.09800 0.06800 -0.16150 
0.06950 0.01950 0.00400 
0.04900 0.18600 -0.25700 
0.05850 0.15750 -0.14550 
-0.00350 0.02750 -0.15600 
0.03750 -0.04250 -0.07250 
0.06450 0.09350 -0.11750 
-0.04950 0.04950 0.00850 
0.10350 -0.02200 -0.09850 
0.08250 0.04700 -0.09500 
0.12250 0.16750 -0.17800 
0.05100 0.10700 -0.12500 
0.11700 0.09200 -0.19350 
0.04800 0.03200 -0.05200 
0.02450 0.04950 -0.06850 
0.14400 0.07100 -0.22850 
0.04200 -0.05800 0.01150 
0.04000 0.10100 -0.11200 
0.03150 0.12450 -0.02900 
0.09800 0.10900 -0.25500 
0.11800 0.03400 -0.04000 
0.03450 0.00350 -0.10400 
0.08350 0.06400 -0.09600 
0.07650 -0.01900 -0.21400 
-0.05550 -0.01900 0.04750 
0.06150 0.08300 -0.08150 
0.07100 0.04400 -0.07200 
-0.06500 0.04050 0.10600 
0.15550 0.09350 -0.05850 
0.09700 0.03850 -0.10000 
0.07850 0.02800 -0.16700 
0.06850 0.05900 -0.20950 
0.09150 -0.03200 -0.07400 
-0.01950 0.06400 -0.03050 
0.07300 0.16900 -0.06600 
-0.02250 0.01550 -0.06200 
0.05800 -0.00300 -0.13350 
-0.06050 0.07850 -0.03300 
0.02500 -0.01100 -0.05650 
0.05800 0.12250 -0.06900 
-0.04750 -0.02100 0.08400 
0.02900 0.13900 -0.10250 
-0.12750 0.05700 0.05900 
0.14350 0.04000 -0.29000 
0.02100 0.06400 -0.09300 
0.10850 0.07600 -0.13850 
-0.01750 0.06050 -0.07650 
-0.02350 0.16600 -0.18300 
0.09600 0.02950 -0.12300 
0.13850 -0.02350 -0.19850 
0.07300 0.02250 -0.29950 
0.09350 0.13850 -0.01250 
0.05800 0.02050 -0.02450 
0.11000 0.12450 -0.20150 
-0.05600 0.04150 0.03750 
0.03600 0.00200 -0.03250 
0.14600 -0.02700 0.06350 
-0.01750 0.09950 -0.03550 
0.05100 0.04500 -0.08950 
-0.03050 0.02750 -0.21450 
0.12500 0.07000 -0.11350 
0.03050 0.01950 -0.06850 
0.00850 -0.01700 0.08900 
0.09950 0.14900 0.12600 
0.09950 0.11700 -0.04050 
0.06000 0.06800 -0.26150 
0.08150 0.13950 -0.16500 
0.05500 0.04250 -0.12900 
0.08600 0.12350 -0.19450 
0.03800 0.08800 -0.12150 
0.00550 0.04750 0.10350 
0.11250 0.15550 -0.02000 
0.04900 0.04900 -0.13650 
-0.01350 0.02400 0.05150 
-0.00350 0.02900 -0.06750 
0.09050 0.13850 0.00500 
0.07350 0.08000 0.00900 
0.12600 0.06650 -0.12550 
0.02550 0.05150 -0.16100 
-0.03350 0.00650 -0.04500 
-0.04450 0.08250 -0.01000 
0.00950 0.03250 0.04200 
0.08150 0.18450 -0.06400 
0.13750 0.06450 -0.18850 
0.10350 0.07800 0.04900 
0.11100 0.02550 -0.31050 
-0.00550 0.05500 0.02800 
0.08800 0.09550 -0.00950 
0.05900 0.06150 -0.07900 
0.15850 -0.03350 0.06000 
0.11200 0.00800 0.04000 
0.07000 0.05300 -0.19150 
0.00800 0.15950 -0.07900 
0.14450 0.03250 -0.19900 
0.02900 0.11050 -0.04150 
0.05300 0.16900 -0.11400 
0.00250 0.05100 -0.01150 
0.05700 -0.05000 -0.06450 
0.10250 -0.01300 -0.06300 
0.10600 0.04500 -0.02400 
0.09500 0.01150 -0.02450 
0.06700 0.16450 -0.08250 
0.12450 0.04300 -0.11000 
0.09400 0.09950 -0.19100 
0.07700 0.03750 -0.00600 
0.02650 0.07600 -0.10950 
-0.00750 0.12900 -0.06900 
0.00700 0.08250 -0.10150 
0.08650 0.06400 -0.09900 
0.05950 0.08100 -0.17950 
0.16900 0.00850 -0.21700 
0.00050 0.01000 -0.04400 
0.13800 0.11550 -0.24250 
-0.11050 0.03600 0.06300 
0.02700 0.12650 -0.19500 
0.06800 0.07500 -0.09500 
0.09550 0.05850 -0.05800 
0.14950 0.07250 -0.17450 
-0.01500 -0.10300 0.02350 
0.08600 0.03100 -0.08750 
0.12750 0.05000 -0.03750 
0.16800 0.02050 -0.12100 
0.02950 0.04750 -0.11450 
0.07750 0.05500 0.05900 
0.15200 -0.09600 -0.02600 
0.13000 0.08150 0.06650 
0.04900 0.14450 -0.00900 
0.07700 0.12600 -0.00100 
0.05050 -0.00650 -0.11100 
0.05750 0.04600 -0.04400 
0.03850 0.09800 -0.15700 
0.10350 0.06500 -0.02350 
0.04600 0.08750 -0.09550 
-0.00950 0.13650 -0.11500 
0.03450 0.14800 -0.15150 
0.09050 0.09400 0.01800 
0.11850 -0.01350 -0.25950 
0.07850 0.06000 -0.11700 
0.11050 -0.05100 -0.16200 
0.13500 -0.01100 -0.06600 
0.12400 0.04050 -0.04950 
0.00650 0.10250 -0.15600 
0.06950 0.09100 0.00250 
-0.03200 -0.00700 -0.02600 
0.07650 -0.01050 -0.01050 
0.01000 -0.07900 0.07400 
-0.00900 0.08450 -0.10300 
0.05500 0.05800 -0.00850 
0.09050 0.12550 -0.06650 
0.02850 -0.02750 -0.02500 
0.00500 0.02000 -0.17750 
0.10350 0.06300 -0.21850 
0.04700 0.02400 -0.07950 
0.06950 0.00100 -0.02600 
0.07300 -0.00800 -0.17650 
-0.04600 0.04850 -0.07200 
0.15500 -0.04050 -0.01900 
-0.10900 0.01600 -0.14100 
0.01800 0.04750 -0.00600 
-0.01100 -0.04900 -0.09450 
0.04550 0.01150 -0.02550 
0.06200 0.06250 -0.06750 
0.02750 0.07150 -0.08400 
0.03600 0.07400 -0.07000 
0.17300 0.14000 0.06450 
0.02500 0.11450 -0.08300 
0.11150 0.16350 0.02750 
0.15600 0.02200 -0.24200 
0.08000 0.00650 -0.18500 
0.07550 -0.01650 -0.02550 
0.06650 0.06300 -0.05850 
-0.02700 0.06000 -0.06200 
0.03150 -0.05700 -0.12950 
0.07100 0.05300 0.00750 
0.07850 0.04100 -0.11300 
0.07900 0.02450 -0.02750 
0.13500 0.06300 -0.16450 
0.09600 0.14250 -0.02600 
0.08200 -0.00250 0.01550 
0.03550 0.04700 -0.09950 
0.03100 0.00550 -0.07500 
0.00600 0.01200 -0.14400 
0.04800 0.03950 -0.14650 
0.07000 0.06650 -0.05850 
0.08050 0.02150 -0.10300 
0.06750 0.10650 -0.17800 
0.06800 0.08400 -0.04750 
0.06100 0.10550 -0.04850 
0.07300 0.08700 -0.21800 
-0.05350 0.04150 0.10850 
0.08150 0.04550 -0.06150 
-0.05900 0.05650 0.03700 
0.14950 0.08550 -0.25550 
0.06000 0.06200 -0.18050 
0.00550 -0.03600 -0.07600 
-0.02650 0.08350 0.05350 
0.10250 0.01950 -0.02550 
-0.04450 -0.01100 -0.15550 
0.05900 0.05200 -0.06050 
0.10100 0.07400 -0.14700 
0.11150 0.11600 -0.12700 
0.08000 0.09950 -0.07650 
0.08000 -0.04650 -0.09400 
-0.05950 -0.06600 -0.12500 
0.01850 0.07950 -0.13950 
0.12600 0.03200 -0.01100 
0.14300 0.04800 -0.27150 
0.05000 0.06900 0.03200 
-0.01950 0.05100 0.02450 
0.13800 0.08200 -0.09400 
-0.02150 0.06200 -0.10650 
0.10950 -0.14400 0.07100 
0.05150 -0.00400 -0.02350 
0.17650 0.12650 0.00450 
0.06000 0.10850 -0.04600 
0.14600 0.03700 -0.07750 
-0.02600 0.11900 -0.01300 
0.08950 0.12450 -0.15700 
-0.03500 0.05150 0.03350 
0.09450 0.07400 0.00450 
0.12800 0.09850 -0.13000 
0.08450 0.08400 0.00950 
0.05600 -0.00650 -0.09050 
0.18450 0.06050 -0.14750 
-0.00450 0.06450 -0.04650 
0.09350 0.11350 0.11500 
0.12550 0.02200 -0.04450 
0.04850 0.17150 -0.12000 
-0.02250 0.10400 -0.09300 
0.03450 0.09100 -0.03250 
0.04850 -0.01150 -0.02650 
0.01800 -0.03700 -0.00300 
0.12550 0.02250 -0.21850 
0.03750 0.03750 -0.04650 
0.03650 0.05600 -0.14200 
-0.00050 -0.07900 0.04650 
0.06750 -0.00100 -0.04100 
0.07650 -0.01100 -0.09750 
0.06000 0.00900 -0.09400 
0.03500 -0.01250 -0.20800 
0.10550 0.08350 -0.16950 
0.03850 0.04600 -0.04700 