# vtk DataFile Version 2.0 
Xm, Ym, Zm, Uvecs, timestep 10037 
ASCII 
 
DATASET POLYDATA POINTS 496 float 
  0.657   3.912 -69.846 
  8.346   5.893 -69.322 
 -5.261  -8.032 -73.332 
  2.907   6.075 -69.828 
 -2.312  -6.883 -73.499 
 -1.172   3.751 -71.630 
 -1.300   9.412 -72.680 
 -1.082   6.522 -70.808 
-10.550   5.203 -71.932 
  1.664   4.817 -68.901 
 -6.828   6.331 -69.507 
 -5.297   1.454 -72.320 
 -7.486  -0.952 -75.144 
 -4.025  -6.377 -72.329 
  3.863   2.064 -68.139 
  2.066   9.697 -68.273 
  0.761   7.639 -68.253 
  2.539  -5.043 -76.179 
 -8.437  10.147 -73.629 
  4.486  -0.021 -71.993 
  9.012   7.941 -70.947 
  5.206   1.966 -68.104 
 -4.661  -5.258 -70.090 
 -2.232  -6.050 -69.662 
  3.811   7.930 -66.622 
 -4.249  -1.534 -71.505 
  0.416   2.218 -67.673 
  2.037   8.646 -63.992 
  8.862  -5.191 -72.463 
  2.147   8.670 -71.456 
 -0.869  -5.108 -70.819 
  8.307   2.642 -70.846 
 -1.899 -11.299 -72.303 
 -1.270   1.228 -68.198 
 -5.031   7.888 -72.447 
  2.952  -1.297 -73.157 
 -6.700  -2.373 -70.802 
 -5.121   6.434 -71.807 
  1.445   3.005 -66.941 
-10.735  -6.732 -69.487 
 -5.649   9.222 -64.874 
  1.623 -10.746 -70.766 
  6.411  -2.798 -69.266 
  4.428 -12.250 -73.760 
  6.067   4.326 -66.338 
  1.656   3.108 -70.330 
  3.517   7.447 -67.287 
  4.901  11.069 -69.769 
 -2.122  10.717 -70.919 
  4.235   1.774 -73.465 
 -1.426  -9.562 -66.510 
-10.063  -0.841 -67.107 
 -7.796  -3.627 -70.487 
 -1.296   6.347 -72.704 
  6.639   8.497 -72.326 
  0.347  -5.921 -70.489 
 11.625  -5.082 -68.870 
  3.894  10.442 -67.579 
 -6.753  -2.447 -67.457 
 -5.718  -5.316 -67.971 
-14.294  -9.567 -69.644 
 -4.787  -7.398 -68.329 
 -0.907  -0.375 -70.544 
 11.863  10.794 -69.565 
-11.497   5.668 -68.276 
 -1.110  -1.477 -66.773 
 -8.309  -7.123 -67.094 
  9.037   6.694 -68.734 
  9.445   3.110 -66.090 
 -5.942   7.800 -74.058 
  7.973   2.524 -67.588 
 -7.490   6.367 -68.552 
  5.437   8.751 -75.359 
 -0.615   0.875 -71.194 
 11.416  -4.550 -69.730 
 11.736   2.040 -73.813 
  0.106   5.915 -73.999 
  4.744  -5.009 -72.421 
  7.688   1.526 -67.898 
  8.025  -4.956 -68.998 
 -5.627  -0.125 -72.327 
  5.259  -6.012 -64.207 
 12.265   0.173 -73.577 
 11.504  -2.740 -68.831 
 -6.021   6.258 -64.410 
  2.288  -8.038 -61.725 
  7.537  -7.427 -69.502 
 -7.361  -7.566 -69.504 
  1.027   1.219 -75.243 
 -7.673  -5.644 -69.329 
  5.351  -3.989 -69.828 
-10.273   2.639 -70.644 
  4.691   3.380 -67.165 
 -1.291  -8.018 -65.154 
 -1.188   8.908 -62.122 
 -6.374  -5.108 -69.109 
 16.228   2.020 -69.487 
 -5.753  -6.898 -66.954 
-13.549   1.845 -70.240 
  5.732   9.935 -71.286 
-11.119   4.684 -62.588 
 -4.161  10.469 -60.340 
  2.303   4.903 -62.538 
-10.767   8.357 -63.237 
-10.518  -8.742 -68.256 
 -6.202  -8.329 -66.137 
  2.274   4.729 -70.462 
 -5.107   4.373 -61.902 
 -2.624   7.684 -72.269 
 -8.485 -11.493 -66.929 
-12.689   5.292 -73.810 
  2.948   9.819 -74.054 
 11.692  -6.243 -68.561 
 -7.216  11.311 -70.826 
 -9.348  -1.277 -70.282 
 -7.295   0.954 -64.352 
 10.064  -2.693 -67.755 
-10.906  -9.891 -69.251 
 -0.716  -0.984 -67.490 
  0.381  -8.111 -64.161 
  3.469  -7.334 -69.770 
-12.525  -5.756 -69.749 
 -8.672   4.476 -67.932 
-14.394 -11.688 -71.683 
 -6.841   3.671 -68.451 
 -1.148  -2.282 -64.751 
  0.973  -8.886 -73.273 
 -1.281   1.406 -75.292 
 -1.993 -11.283 -67.740 
 -3.219  11.442 -71.084 
 13.374  -0.619 -65.215 
 -1.373   0.072 -67.483 
 12.084  -0.811 -68.619 
  4.917  -8.288 -65.419 
 -6.588  12.078 -65.941 
-14.352  10.302 -73.133 
 -3.005  12.308 -71.938 
 -8.281  12.083 -69.370 
  5.680   8.357 -68.991 
  2.262  -9.936 -70.346 
 -7.641  10.631 -64.037 
  3.609   9.181 -67.605 
-10.709  -3.841 -68.966 
 -3.168  -0.461 -72.287 
 -8.326   0.787 -64.393 
 -0.256  -3.412 -63.207 
-12.602   2.043 -69.896 
-14.137  -4.759 -69.995 
-12.177   3.720 -68.722 
  1.279 -11.477 -65.252 
  2.502 -10.458 -75.963 
 14.701   5.379 -71.656 
  7.348   1.343 -61.532 
 12.124   6.636 -63.261 
 -5.172   7.215 -72.061 
 12.272  -5.418 -69.505 
  5.694  -4.386 -63.683 
 -4.503  -2.160 -74.415 
  4.386   2.676 -62.316 
 15.270   8.074 -72.534 
  5.989  -2.322 -77.660 
-10.806   1.749 -69.537 
  5.156   0.751 -63.668 
 -7.047 -11.617 -66.430 
-13.994  -1.772 -70.712 
  8.014   7.715 -67.380 
  9.386   9.819 -68.453 
  7.495 -12.117 -67.169 
 11.913   8.796 -68.672 
  6.465  -1.193 -63.023 
 -4.281   1.470 -61.993 
 12.059  -3.430 -68.445 
-10.227   2.356 -64.045 
  7.398  12.450 -69.144 
 10.776  -6.750 -66.772 
 13.711   1.729 -71.060 
  0.974 -11.333 -68.469 
-11.723   8.852 -71.816 
 -9.334   8.740 -62.687 
-11.710   0.477 -67.297 
 13.465   3.043 -74.899 
-12.480   0.715 -63.650 
-12.880  10.168 -65.492 
  5.936  -2.623 -74.183 
-16.081 -11.204 -72.862 
  3.758   7.949 -74.335 
  9.430 -11.451 -71.481 
 -3.763   9.663 -73.336 
  1.744  -5.710 -70.957 
 -6.344  -2.704 -67.410 
 11.037  12.398 -66.788 
  4.370  -9.543 -64.273 
 -6.193  -3.243 -76.802 
 -6.872   9.208 -75.889 
-10.902   1.904 -63.083 
  8.883 -12.460 -66.815 
-15.022   7.351 -69.520 
 -2.859  -2.660 -70.936 
-10.303  -2.615 -75.722 
  9.947 -10.356 -70.811 
  8.146   9.988 -69.867 
 13.440   5.188 -73.516 
 -7.696  -5.187 -65.166 
  5.158 -10.286 -67.779 
 10.765  -3.884 -69.525 
  9.175   3.226 -72.349 
  9.356   5.649 -66.252 
 16.935   9.662 -73.994 
 13.637   0.394 -67.682 
  9.916  -8.105 -70.434 
 13.357  -5.322 -74.160 
  0.054   3.293 -57.836 
  4.172  -3.602 -69.388 
 -3.551  10.750 -74.018 
 -3.968   0.486 -71.548 
 -1.307  10.107 -75.980 
 10.230  10.929 -66.586 
  1.038  -0.632 -63.856 
-14.347  -1.291 -69.327 
 -3.226  -8.547 -68.251 
-11.517  -8.232 -69.096 
 -1.420   7.393 -63.046 
-14.337  11.467 -67.383 
-15.088   4.012 -69.691 
  8.523   2.577 -68.507 
 -7.299   6.941 -72.181 
  9.761   8.154 -73.444 
  4.877 -10.855 -64.163 
  9.718  11.523 -69.737 
 15.351 -11.391 -71.519 
 12.337   4.931 -64.254 
 13.477  -5.652 -68.216 
 -4.950  -2.613 -66.777 
 11.574  -1.441 -69.395 
-11.381  -1.805 -72.519 
 12.749  -6.819 -70.868 
 11.721   7.058 -71.206 
 15.900  -3.465 -67.201 
 12.015  11.887 -67.299 
 14.904  -7.802 -70.892 
 11.405   7.165 -67.640 
 10.016  12.086 -69.936 
 -1.673   3.972 -77.194 
 -9.922   0.011 -67.519 
-13.282 -11.431 -67.845 
 -4.947   4.774 -64.942 
 -1.922  -6.424 -66.281 
  7.611  11.864 -70.360 
 -9.193  11.805 -74.068 
  5.916   9.230 -71.212 
 16.592   3.005 -69.888 
-12.168  -0.249 -69.028 
 -6.428   5.322 -73.213 
-14.725  -2.107 -69.486 
-12.776   4.864 -70.982 
 -7.842  11.436 -75.180 
  8.511 -12.046 -67.703 
 -4.134  -5.394 -72.859 
  8.703   1.101 -63.268 
  7.857  -4.923 -64.026 
 -5.651  -3.641 -73.169 
 -8.982  -2.906 -66.043 
  3.477  -1.360 -69.840 
 13.733  11.148 -69.070 
-12.438   7.143 -71.007 
  7.280 -12.445 -72.918 
-14.195  12.112 -73.049 
  5.471 -12.047 -66.346 
 12.927   0.934 -70.704 
 -5.433  -3.993 -69.648 
 -2.077  -7.971 -71.895 
 10.637  -7.890 -73.252 
 15.087   7.645 -68.907 
  4.511   2.148 -69.445 
 13.390  10.204 -65.811 
  0.020 -11.118 -63.474 
  5.939 -12.286 -69.144 
 -9.012   1.498 -68.890 
  3.214  -3.205 -69.315 
 -0.978 -11.184 -73.190 
 -7.112   7.636 -64.871 
  7.485 -11.041 -69.760 
 -0.247  -7.688 -71.847 
  8.169  -3.019 -68.141 
-10.863 -12.064 -65.639 
  9.880   1.482 -70.821 
  7.386  -6.312 -61.722 
 15.009   9.136 -72.183 
-14.148   5.462 -68.422 
  9.884  -9.224 -66.608 
  1.515  -7.403 -65.719 
 -3.899  -5.689 -71.007 
 14.706   2.862 -71.390 
-12.021  12.633 -69.144 
  4.034  -3.258 -61.703 
 -4.888  -3.784 -69.124 
  6.103  -0.980 -68.595 
 -7.853  -1.542 -62.785 
  8.809  -9.156 -73.139 
 12.580 -11.620 -68.930 
 -9.529   8.299 -61.555 
  7.283  -4.471 -74.297 
-11.119   9.719 -69.139 
-14.781  -8.346 -70.732 
  8.790   6.790 -71.983 
 17.461   9.877 -70.876 
  2.161 -11.848 -70.500 
 -9.411   6.401 -69.077 
-15.560   6.075 -76.111 
  5.918  -0.283 -64.088 
-14.929  -5.471 -75.844 
 -0.158  12.500 -69.617 
-10.044  11.207 -62.259 
 -1.908  -0.687 -68.250 
  1.598   1.534 -65.855 
  9.122  11.428 -68.502 
 12.151   6.630 -68.168 
 13.871   1.316 -68.848 
 17.235  -0.341 -75.158 
 -5.317  -8.545 -66.651 
-11.375  11.118 -66.991 
-12.435  -0.924 -67.496 
  6.594 -11.634 -75.418 
  8.129  -1.549 -70.938 
 -3.677 -10.144 -71.095 
 -2.056  -1.695 -71.188 
  5.276  -7.332 -63.968 
 -7.925  -8.088 -75.701 
 16.923   3.077 -72.677 
 -6.249   1.081 -72.961 
  6.348   8.434 -69.314 
 -5.914  -4.362 -70.067 
  9.023  10.563 -66.925 
  1.410 -11.026 -73.284 
 -5.434  -1.041 -69.995 
 -3.852  -4.902 -77.673 
 -5.105   5.850 -73.288 
  1.776   2.575 -68.635 
  0.179  11.992 -64.700 
 -4.626   9.675 -65.799 
  3.419  -6.237 -58.201 
 -3.848   1.511 -67.613 
 14.964 -10.172 -68.415 
 -1.753  -7.011 -68.760 
 -6.870   3.633 -61.133 
 -3.087   4.279 -68.819 
 -2.569  12.677 -67.436 
 -5.979   1.293 -69.105 
  3.853   9.710 -60.031 
 -3.436  -7.591 -65.102 
 -8.271   0.199 -64.743 
-10.281 -12.134 -68.831 
  4.370  -0.627 -65.273 
-11.285   2.256 -67.110 
-11.296   5.901 -63.648 
  6.248  -8.791 -63.513 
 -4.261   2.059 -61.674 
 -6.315  -0.706 -65.721 
  7.939  11.486 -62.596 
  3.478   8.056 -63.542 
 -7.167  -5.653 -73.260 
 -9.181  -9.804 -70.110 
  0.151   8.716 -61.121 
 -0.732 -11.537 -68.603 
 -3.385  -9.995 -60.654 
 -2.247  -5.534 -76.716 
 -5.447   3.939 -73.294 
 16.435  -5.954 -70.725 
-11.189  -4.138 -69.136 
-11.690  -6.967 -69.143 
 -4.885 -11.941 -68.475 
 -4.779  -0.814 -72.717 
 -8.436   5.334 -64.507 
-13.331  -1.477 -73.283 
 18.066 -12.152 -67.873 
 -5.748  -5.794 -72.899 
 -5.504   6.976 -62.475 
 10.669   3.845 -65.724 
 13.172   8.886 -72.589 
 -5.753  -3.567 -59.147 
-10.638  -5.774 -65.450 
 -1.765   4.806 -67.034 
 -0.540   7.351 -59.959 
 -2.115   3.611 -59.331 
 -0.576   5.822 -58.447 
-11.911   0.637 -72.561 
-12.593  -8.721 -67.253 
  4.973   9.479 -69.403 
  3.585   1.704 -76.943 
  4.534  12.096 -63.287 
 16.429  -2.695 -73.634 
 -7.483  -9.472 -70.160 
-10.500  -7.951 -60.856 
 12.346  -9.704 -65.626 
  8.732   8.816 -65.007 
-11.746  -4.567 -68.458 
  1.618  11.386 -73.261 
  0.635  -6.176 -76.558 
  9.909   3.864 -63.243 
 -7.649  -0.842 -68.453 
  1.781 -10.522 -59.269 
 11.082 -12.272 -65.120 
 -6.963   1.288 -75.469 
  1.601  12.018 -62.603 
  9.624   6.696 -63.328 
  7.700   8.656 -72.795 
  6.027  -7.615 -76.638 
 -1.402  -9.939 -60.953 
  8.787  -0.576 -70.635 
-16.162   3.761 -71.353 
  4.350  11.587 -61.901 
  0.613  10.613 -68.271 
  2.935 -10.883 -62.472 
 16.697  11.434 -66.137 
 10.749  -9.140 -65.585 
  2.082 -11.818 -64.974 
  5.672   2.710 -63.524 
-11.481   5.752 -64.956 
  2.803   9.915 -59.597 
-13.776  -7.454 -73.523 
 -8.172 -10.439 -71.547 
 -0.451  10.140 -62.424 
 12.723  -3.316 -63.095 
  6.085  -7.903 -62.834 
  0.571  -1.925 -60.674 
 -9.829  -8.136 -65.155 
  0.391   5.568 -58.656 
  8.015  -8.119 -71.644 
 10.679  -5.936 -63.064 
 -5.978   5.875 -61.848 
 17.705   0.037 -66.992 
 15.695   2.364 -64.189 
 15.836 -12.974 -70.916 
 -2.439  -2.244 -74.837 
 14.739  -3.099 -74.697 
 13.107  -7.287 -65.381 
 12.610   1.192 -64.149 
 12.304  -2.284 -66.873 
 16.438  -1.553 -67.353 
 -7.576   8.358 -66.083 
 -5.094  -4.901 -75.410 
-12.728  -5.802 -72.148 
 -2.180   6.323 -66.150 
 -5.994 -11.578 -67.577 
 11.461  10.889 -60.105 
 10.753  -9.921 -65.356 
 -5.414   6.018 -64.022 
 10.973   7.895 -68.797 
 16.082  -7.999 -70.558 
 12.119 -11.782 -69.281 
  1.510  12.824 -66.931 
 11.227 -12.891 -65.576 
  5.091 -10.501 -73.819 
  3.527  -2.891 -76.334 
-14.210   1.974 -77.817 
  4.358   1.216 -68.183 
  7.335   0.525 -64.918 
 -4.727  -1.785 -75.183 
 15.840   7.844 -64.475 
 13.588  -6.973 -69.039 
  8.034  -8.688 -73.914 
  9.926   0.536 -54.825 
 13.091  10.461 -64.889 
  0.392   9.370 -64.582 
  8.754  -3.851 -73.892 
-12.645  -5.066 -67.133 
  7.316  -4.896 -70.246 
 15.642  13.038 -64.621 
 -8.696   4.654 -65.300 
 -9.819   9.381 -72.585 
  5.583  11.549 -72.406 
-10.263  -5.854 -71.270 
-15.916   2.601 -73.412 
 17.064  -9.514 -65.323 
-15.711   1.972 -75.136 
 -6.168  -1.221 -68.531 
 -1.023   5.580 -69.785 
  7.768  -5.250 -70.305 
 -1.236 -10.419 -76.636 
-10.971   7.945 -75.228 
 -5.512   4.850 -67.087 
 16.206   0.932 -64.435 
 -7.053   4.024 -64.470 
 16.797   9.668 -67.298 
 16.005  -7.334 -73.349 
 -7.853   3.453 -66.581 
 17.270  -2.963 -75.358 
 -4.966   3.835 -60.308 
 12.991  -4.610 -67.808 
-10.003  -2.766 -73.361 
-15.528   2.855 -75.782 
  8.059   6.258 -77.046 
  9.526  -8.410 -70.786 
 18.040  -2.998 -69.689 
 15.600   0.755 -72.418 
  5.594  12.002 -69.844 

 VERTICES 496 992 
1 0 
1 1 
1 2 
1 3 
1 4 
1 5 
1 6 
1 7 
1 8 
1 9 
1 10 
1 11 
1 12 
1 13 
1 14 
1 15 
1 16 
1 17 
1 18 
1 19 
1 20 
1 21 
1 22 
1 23 
1 24 
1 25 
1 26 
1 27 
1 28 
1 29 
1 30 
1 31 
1 32 
1 33 
1 34 
1 35 
1 36 
1 37 
1 38 
1 39 
1 40 
1 41 
1 42 
1 43 
1 44 
1 45 
1 46 
1 47 
1 48 
1 49 
1 50 
1 51 
1 52 
1 53 
1 54 
1 55 
1 56 
1 57 
1 58 
1 59 
1 60 
1 61 
1 62 
1 63 
1 64 
1 65 
1 66 
1 67 
1 68 
1 69 
1 70 
1 71 
1 72 
1 73 
1 74 
1 75 
1 76 
1 77 
1 78 
1 79 
1 80 
1 81 
1 82 
1 83 
1 84 
1 85 
1 86 
1 87 
1 88 
1 89 
1 90 
1 91 
1 92 
1 93 
1 94 
1 95 
1 96 
1 97 
1 98 
1 99 
1 100 
1 101 
1 102 
1 103 
1 104 
1 105 
1 106 
1 107 
1 108 
1 109 
1 110 
1 111 
1 112 
1 113 
1 114 
1 115 
1 116 
1 117 
1 118 
1 119 
1 120 
1 121 
1 122 
1 123 
1 124 
1 125 
1 126 
1 127 
1 128 
1 129 
1 130 
1 131 
1 132 
1 133 
1 134 
1 135 
1 136 
1 137 
1 138 
1 139 
1 140 
1 141 
1 142 
1 143 
1 144 
1 145 
1 146 
1 147 
1 148 
1 149 
1 150 
1 151 
1 152 
1 153 
1 154 
1 155 
1 156 
1 157 
1 158 
1 159 
1 160 
1 161 
1 162 
1 163 
1 164 
1 165 
1 166 
1 167 
1 168 
1 169 
1 170 
1 171 
1 172 
1 173 
1 174 
1 175 
1 176 
1 177 
1 178 
1 179 
1 180 
1 181 
1 182 
1 183 
1 184 
1 185 
1 186 
1 187 
1 188 
1 189 
1 190 
1 191 
1 192 
1 193 
1 194 
1 195 
1 196 
1 197 
1 198 
1 199 
1 200 
1 201 
1 202 
1 203 
1 204 
1 205 
1 206 
1 207 
1 208 
1 209 
1 210 
1 211 
1 212 
1 213 
1 214 
1 215 
1 216 
1 217 
1 218 
1 219 
1 220 
1 221 
1 222 
1 223 
1 224 
1 225 
1 226 
1 227 
1 228 
1 229 
1 230 
1 231 
1 232 
1 233 
1 234 
1 235 
1 236 
1 237 
1 238 
1 239 
1 240 
1 241 
1 242 
1 243 
1 244 
1 245 
1 246 
1 247 
1 248 
1 249 
1 250 
1 251 
1 252 
1 253 
1 254 
1 255 
1 256 
1 257 
1 258 
1 259 
1 260 
1 261 
1 262 
1 263 
1 264 
1 265 
1 266 
1 267 
1 268 
1 269 
1 270 
1 271 
1 272 
1 273 
1 274 
1 275 
1 276 
1 277 
1 278 
1 279 
1 280 
1 281 
1 282 
1 283 
1 284 
1 285 
1 286 
1 287 
1 288 
1 289 
1 290 
1 291 
1 292 
1 293 
1 294 
1 295 
1 296 
1 297 
1 298 
1 299 
1 300 
1 301 
1 302 
1 303 
1 304 
1 305 
1 306 
1 307 
1 308 
1 309 
1 310 
1 311 
1 312 
1 313 
1 314 
1 315 
1 316 
1 317 
1 318 
1 319 
1 320 
1 321 
1 322 
1 323 
1 324 
1 325 
1 326 
1 327 
1 328 
1 329 
1 330 
1 331 
1 332 
1 333 
1 334 
1 335 
1 336 
1 337 
1 338 
1 339 
1 340 
1 341 
1 342 
1 343 
1 344 
1 345 
1 346 
1 347 
1 348 
1 349 
1 350 
1 351 
1 352 
1 353 
1 354 
1 355 
1 356 
1 357 
1 358 
1 359 
1 360 
1 361 
1 362 
1 363 
1 364 
1 365 
1 366 
1 367 
1 368 
1 369 
1 370 
1 371 
1 372 
1 373 
1 374 
1 375 
1 376 
1 377 
1 378 
1 379 
1 380 
1 381 
1 382 
1 383 
1 384 
1 385 
1 386 
1 387 
1 388 
1 389 
1 390 
1 391 
1 392 
1 393 
1 394 
1 395 
1 396 
1 397 
1 398 
1 399 
1 400 
1 401 
1 402 
1 403 
1 404 
1 405 
1 406 
1 407 
1 408 
1 409 
1 410 
1 411 
1 412 
1 413 
1 414 
1 415 
1 416 
1 417 
1 418 
1 419 
1 420 
1 421 
1 422 
1 423 
1 424 
1 425 
1 426 
1 427 
1 428 
1 429 
1 430 
1 431 
1 432 
1 433 
1 434 
1 435 
1 436 
1 437 
1 438 
1 439 
1 440 
1 441 
1 442 
1 443 
1 444 
1 445 
1 446 
1 447 
1 448 
1 449 
1 450 
1 451 
1 452 
1 453 
1 454 
1 455 
1 456 
1 457 
1 458 
1 459 
1 460 
1 461 
1 462 
1 463 
1 464 
1 465 
1 466 
1 467 
1 468 
1 469 
1 470 
1 471 
1 472 
1 473 
1 474 
1 475 
1 476 
1 477 
1 478 
1 479 
1 480 
1 481 
1 482 
1 483 
1 484 
1 485 
1 486 
1 487 
1 488 
1 489 
1 490 
1 491 
1 492 
1 493 
1 494 
1 495 
POINT_DATA 496 
SCALARS MeanU double 1 
LOOKUP_TABLE default
0.10762 
0.10301 
0.03526 
0.08309 
0.03552 
0.12795 
0.07491 
0.10419 
0.04208 
0.07953 
0.13598 
0.06970 
0.06129 
0.08307 
0.08298 
0.06339 
0.09743 
0.03836 
0.04197 
0.09872 
0.11710 
0.03722 
0.07850 
0.11529 
0.17755 
0.09250 
0.13994 
0.12835 
0.04883 
0.14175 
0.12193 
0.08456 
0.14084 
0.13674 
0.11867 
0.12871 
0.04452 
0.07341 
0.12905 
0.14802 
0.19628 
0.04756 
0.10720 
0.07105 
0.06733 
0.10426 
0.13392 
0.06921 
0.04508 
0.08649 
0.20776 
0.15470 
0.09291 
0.13341 
0.13800 
0.09964 
0.08347 
0.06916 
0.17057 
0.13019 
0.13621 
0.19619 
0.12315 
0.06801 
0.07129 
0.16662 
0.15255 
0.10748 
0.09719 
0.10005 
0.08214 
0.15375 
0.05623 
0.13533 
0.03210 
0.12002 
0.15660 
0.06562 
0.09282 
0.07257 
0.05891 
0.11011 
0.06975 
0.09211 
0.15329 
0.19485 
0.02599 
0.11694 
0.11496 
0.18234 
0.10951 
0.04829 
0.10838 
0.19772 
0.09971 
0.09927 
0.11301 
0.13899 
0.02055 
0.07962 
0.15365 
0.15880 
0.14303 
0.09779 
0.15435 
0.26632 
0.07857 
0.09093 
0.13200 
0.12563 
0.04689 
0.09245 
0.08739 
0.09061 
0.07040 
0.07583 
0.08587 
0.12824 
0.19255 
0.15591 
0.10079 
0.10787 
0.08236 
0.09824 
0.10130 
0.18960 
0.05561 
0.09843 
0.16140 
0.06783 
0.12945 
0.16284 
0.10120 
0.20047 
0.13482 
0.05338 
0.10824 
0.06566 
0.11252 
0.06945 
0.15868 
0.12070 
0.06985 
0.08504 
0.08181 
0.21412 
0.05121 
0.07404 
0.04076 
0.18545 
0.05454 
0.08707 
0.16788 
0.14864 
0.05971 
0.08585 
0.12809 
0.04234 
0.16022 
0.07125 
0.05990 
0.06062 
0.17190 
0.14859 
0.02909 
0.12229 
0.05266 
0.07344 
0.11192 
0.07933 
0.11028 
0.14313 
0.09957 
0.04953 
0.09916 
0.10270 
0.18071 
0.06827 
0.11783 
0.05773 
0.12766 
0.09127 
0.02255 
0.10175 
0.11700 
0.09887 
0.07460 
0.16090 
0.07919 
0.14719 
0.09003 
0.12130 
0.07557 
0.04717 
0.14933 
0.06306 
0.07940 
0.09985 
0.02099 
0.06197 
0.10509 
0.07391 
0.14998 
0.15116 
0.02836 
0.09801 
0.10044 
0.10151 
0.11639 
0.07132 
0.06241 
0.13828 
0.09765 
0.08602 
0.13409 
0.13283 
0.04634 
0.21030 
0.03096 
0.19063 
0.12054 
0.11616 
0.08039 
0.07964 
0.09242 
0.03297 
0.13871 
0.07532 
0.15426 
0.10942 
0.08810 
0.12797 
0.17820 
0.09214 
0.06379 
0.06715 
0.10493 
0.14868 
0.05893 
0.07067 
0.04978 
0.10328 
0.10773 
0.12497 
0.16213 
0.15814 
0.19162 
0.10734 
0.09361 
0.12479 
0.11051 
0.03613 
0.05665 
0.01940 
0.06071 
0.04656 
0.05702 
0.07723 
0.14162 
0.08634 
0.06868 
0.21720 
0.14030 
0.09829 
0.04729 
0.03318 
0.05654 
0.15448 
0.08401 
0.10798 
0.06485 
0.05308 
0.13777 
0.05985 
0.09205 
0.20741 
0.05309 
0.07437 
0.17747 
0.08935 
0.14380 
0.03148 
0.05802 
0.08817 
0.11484 
0.11176 
0.17362 
0.14630 
0.04982 
0.06941 
0.19932 
0.09196 
0.10415 
0.07060 
0.23153 
0.08545 
0.13203 
0.13198 
0.11085 
0.09105 
0.18875 
0.03344 
0.02029 
0.08474 
0.09537 
0.10207 
0.03846 
0.07733 
0.07402 
0.09547 
0.14107 
0.03574 
0.11833 
0.19534 
0.13049 
0.09021 
0.12975 
0.11943 
0.10757 
0.25990 
0.08205 
0.05880 
0.03307 
0.14744 
0.04961 
0.10937 
0.11927 
0.11486 
0.12048 
0.03255 
0.09174 
0.08735 
0.12157 
0.06117 
0.06424 
0.07891 
0.06545 
0.08594 
0.12554 
0.14004 
0.18302 
0.16712 
0.05420 
0.17805 
0.11874 
0.13552 
0.15440 
0.14206 
0.13552 
0.18439 
0.09320 
0.15936 
0.14861 
0.07118 
0.09173 
0.03188 
0.10923 
0.14744 
0.17455 
0.13248 
0.11079 
0.16751 
0.13367 
0.15470 
0.08388 
0.03172 
0.09900 
0.09721 
0.08799 
0.08613 
0.07798 
0.06864 
0.11402 
0.03519 
0.10995 
0.08455 
0.13495 
0.11332 
0.09936 
0.21501 
0.14229 
0.19194 
0.11623 
0.11457 
0.04379 
0.02263 
0.05704 
0.10698 
0.11605 
0.10018 
0.03613 
0.13762 
0.08518 
0.12549 
0.07957 
0.15355 
0.06699 
0.01357 
0.15679 
0.06259 
0.17382 
0.11514 
0.04475 
0.12184 
0.09862 
0.10185 
0.07407 
0.14130 
0.13251 
0.07612 
0.10673 
0.05275 
0.22055 
0.09622 
0.10752 
0.14390 
0.14947 
0.05804 
0.11812 
0.11069 
0.14895 
0.12311 
0.14310 
0.12183 
0.18541 
0.17111 
0.14621 
0.03443 
0.16472 
0.12679 
0.10642 
0.07148 
0.08960 
0.06516 
0.05634 
0.15220 
0.10699 
0.17243 
0.12330 
0.10806 
0.05252 
0.20040 
0.11591 
0.08344 
0.10724 
0.10492 
0.14852 
0.13023 
0.07590 
0.08292 
0.07286 
0.11460 
0.08504 
0.15833 
0.08092 
0.08575 
0.08613 
0.17788 
0.19204 
0.11027 
0.04741 
0.17130 
0.11051 
0.06884 
0.11959 
0.16638 
0.13530 
0.02071 
0.10266 
0.03965 
0.12087 
0.04668 
0.06795 
0.14222 
0.07384 
0.05368 
0.12055 
0.02965 
0.12056 
0.09007 
0.13906 
0.13007 
0.14451 
0.10957 
0.16363 
0.10735 
0.08702 
0.14656 
0.16054 
0.03836 
0.10224 
0.15190 
0.04634 
0.16111 
0.11751 
0.03598 

 VECTORS Umean float 
0.00550 0.07550 -0.07650 
-0.06050 0.04450 -0.07050 
-0.00250 -0.00350 0.03500 
-0.05950 0.04200 -0.04000 
-0.02650 0.02300 -0.00550 
-0.01250 0.08250 -0.09700 
-0.02650 -0.00300 -0.07000 
-0.04700 0.06500 -0.06650 
-0.03550 0.02000 -0.01050 
0.01450 0.05750 -0.05300 
-0.01650 0.06900 -0.11600 
0.01650 0.06750 -0.00550 
-0.00750 -0.01000 -0.06000 
0.03400 0.07350 0.01850 
-0.01000 0.05850 -0.05800 
-0.04250 0.03400 -0.03250 
-0.07150 0.06600 0.00500 
0.00700 0.00400 -0.03750 
0.00700 -0.00850 -0.04050 
0.04050 0.05600 -0.07050 
-0.08150 0.01350 -0.08300 
-0.00700 0.02350 -0.02800 
-0.00000 0.07550 0.02150 
-0.02550 0.10850 -0.02950 
0.00800 0.15400 -0.08800 
0.05400 0.07450 0.00950 
0.00300 0.11300 -0.08250 
-0.01850 0.12550 -0.01950 
-0.01800 0.04050 -0.02050 
-0.11850 -0.02400 -0.07400 
-0.02100 0.12000 -0.00500 
-0.06500 0.01300 -0.05250 
0.10700 0.07800 0.04800 
0.03600 0.11450 -0.06550 
-0.05250 0.08650 -0.06200 
0.00450 0.06500 -0.11100 
0.03550 0.01900 0.01900 
-0.00900 0.05650 -0.04600 
0.01400 0.11750 -0.05150 
0.03950 0.14250 -0.00650 
0.03250 0.19000 -0.03700 
0.01900 0.03300 -0.02850 
0.03100 0.06300 -0.08100 
0.02800 0.03950 0.05200 
0.04450 0.03950 -0.03150 
-0.00350 0.06300 -0.08300 
-0.01400 0.12750 -0.03850 
-0.06100 -0.03250 0.00350 
-0.00200 0.01750 -0.04150 
-0.01300 -0.00100 -0.08550 
0.02850 0.17700 -0.10500 
0.05850 0.13900 0.03450 
-0.02650 0.06800 0.05750 
-0.08350 0.03200 -0.09900 
-0.10800 0.05050 -0.06950 
0.00150 0.09750 0.02050 
0.03500 0.07550 0.00650 
-0.03150 0.06150 -0.00300 
0.01300 0.15500 -0.07000 
0.04900 0.11850 0.02250 
-0.02200 0.13300 0.01950 
0.07150 0.08350 0.16250 
0.02850 0.09650 -0.07100 
-0.02550 -0.00250 -0.06300 
-0.05250 -0.01600 -0.04550 
0.09350 0.13300 -0.03650 
0.05900 0.06050 0.12700 
-0.07100 0.08050 -0.00550 
0.01100 0.08200 -0.05100 
-0.00300 0.09250 -0.03800 
0.00850 0.06500 -0.04950 
0.01150 0.06250 -0.14000 
-0.00500 0.00100 -0.05600 
0.02150 0.07050 -0.11350 
-0.01400 0.02650 -0.01150 
-0.02550 0.02300 -0.11500 
-0.08450 -0.00950 -0.13150 
-0.02350 0.02700 -0.05500 
0.04650 0.07650 -0.02450 
0.05200 0.04250 -0.02750 
0.00950 0.05800 0.00400 
0.01200 0.06300 -0.08950 
0.00750 0.05400 -0.04350 
0.03400 0.06800 -0.05200 
-0.00650 0.14350 -0.05350 
0.06350 0.11550 -0.14350 
-0.00950 -0.01200 -0.02100 
0.04050 0.06550 0.08800 
-0.06050 -0.02850 -0.09350 
0.04400 0.10950 0.13900 
0.02600 0.06050 -0.08750 
-0.00650 -0.04300 -0.02100 
0.01300 0.06400 -0.08650 
0.09100 0.10250 -0.14250 
-0.01450 0.09750 -0.01500 
0.02200 0.05800 0.07750 
-0.03200 0.08400 -0.06850 
0.07300 0.11550 0.02550 
-0.00400 0.00800 -0.01850 
-0.07550 0.01150 -0.02250 
-0.00650 0.12750 -0.08550 
0.01350 0.15800 -0.00850 
0.01500 0.12600 -0.06600 
0.01650 0.08300 -0.04900 
0.07650 0.13400 0.00400 
0.04950 0.20550 0.16200 
-0.03350 0.04950 -0.05100 
-0.02650 0.08550 -0.01600 
-0.05900 0.05950 -0.10200 
-0.07600 0.10000 -0.00250 
-0.03600 0.00150 -0.03000 
-0.04800 -0.02900 -0.07350 
0.03550 0.07600 -0.02450 
-0.03000 0.08550 -0.00050 
-0.00000 0.06050 -0.03600 
0.03700 0.06600 0.00500 
0.05750 0.04800 -0.04200 
0.03000 0.10700 0.06400 
0.12700 0.13850 -0.04200 
0.06700 0.12850 -0.05750 
-0.00650 0.09600 -0.03000 
0.00250 0.09800 0.04500 
0.06050 0.04050 -0.03850 
-0.03150 0.07750 0.05150 
0.02750 0.05850 -0.07800 
0.09850 0.15850 -0.03350 
0.00800 0.04850 -0.02600 
-0.04850 -0.02300 -0.08250 
0.12050 0.10700 -0.00900 
-0.00900 0.04550 -0.04950 
0.04350 0.11250 -0.04700 
0.04750 0.11900 -0.10050 
0.01600 0.09200 -0.03900 
0.18250 0.08150 0.01550 
-0.03350 0.13050 -0.00500 
-0.04500 0.01650 0.02350 
0.09800 -0.04450 0.01150 
-0.05850 0.01150 -0.02750 
-0.05050 -0.02650 -0.09700 
-0.02200 0.03700 -0.05450 
0.07850 0.11700 -0.07300 
-0.02700 0.11200 -0.03600 
0.02700 0.05050 0.04000 
0.02150 0.08050 -0.01700 
0.04150 0.07050 -0.00000 
0.10350 0.16100 -0.09600 
-0.01350 -0.02600 -0.04200 
0.02100 0.05900 -0.03950 
-0.02000 -0.03550 -0.00100 
0.11300 0.09350 -0.11350 
0.04350 0.03150 -0.00950 
-0.05900 -0.00200 -0.06400 
0.03550 0.15750 -0.04600 
0.01800 0.12850 -0.07250 
-0.02350 0.04100 -0.03650 
0.04850 0.06750 -0.02150 
0.02050 0.08050 -0.09750 
0.02050 0.03450 -0.01350 
0.07950 0.13450 -0.03550 
0.00150 -0.02800 0.06550 
0.03350 0.00400 -0.04950 
-0.01900 -0.01700 -0.05500 
0.09050 0.14400 -0.02500 
0.01050 0.12000 -0.08700 
-0.01950 0.01450 -0.01600 
-0.05650 0.09100 -0.05900 
-0.05050 0.01450 -0.00350 
0.06550 -0.01050 -0.03150 
-0.04000 0.02050 -0.10250 
0.05300 0.05300 0.02600 
0.04400 0.07100 -0.07200 
0.04800 0.12100 -0.05950 
0.02300 0.06800 -0.06900 
0.00350 -0.02900 -0.04000 
-0.00050 0.09200 -0.03700 
-0.00550 0.07400 -0.07100 
0.14250 0.09900 0.05050 
-0.04950 -0.02550 -0.03950 
0.04750 0.10400 0.02850 
-0.01750 0.05400 0.01050 
-0.02800 0.05550 -0.11150 
0.04750 0.05850 -0.05150 
-0.01550 0.01600 0.00350 
0.01900 -0.01700 -0.09850 
-0.06800 0.09200 -0.02450 
0.03350 -0.04100 -0.08350 
-0.04250 0.03750 -0.04850 
-0.08850 0.06950 -0.11500 
-0.03050 0.07300 0.00350 
0.02450 0.14200 -0.03000 
0.02700 -0.03250 0.07950 
0.09350 0.01650 -0.07550 
-0.05800 0.03400 -0.03450 
-0.00200 0.01400 -0.04500 
0.04500 0.13750 -0.03700 
0.05600 0.01550 -0.02450 
-0.06300 -0.04250 0.02300 
0.04850 0.08700 -0.00700 
-0.01150 -0.01750 0.00150 
0.01800 0.05400 -0.02450 
-0.02750 -0.05900 -0.08250 
-0.04700 0.00200 -0.05700 
0.06900 0.11650 0.06450 
0.11200 0.08500 0.05550 
-0.01550 0.01200 -0.02050 
-0.04550 0.01500 -0.08550 
-0.00100 0.09450 -0.03400 
0.00200 -0.02000 -0.09950 
0.05350 0.09400 -0.04300 
0.02150 0.03550 -0.05800 
0.05550 -0.00550 -0.02800 
-0.01100 0.13250 0.03800 
0.05650 0.05000 -0.06200 
0.00050 0.07450 -0.04300 
0.04300 0.11400 -0.05600 
0.01900 0.03750 -0.12600 
-0.02300 -0.02300 -0.03300 
0.06950 0.19500 -0.03700 
-0.00600 0.01050 0.02850 
0.07750 0.14850 0.09100 
0.00900 0.12000 0.00700 
-0.05000 0.08800 -0.05700 
-0.06600 0.03850 -0.02500 
-0.04200 -0.03400 -0.05850 
0.02900 0.08700 -0.01150 
-0.00400 0.01050 -0.03100 
-0.11000 0.05150 -0.06700 
0.05100 0.01450 -0.05350 
-0.07800 -0.02050 -0.13150 
0.02900 0.10100 -0.03050 
-0.04700 0.07150 -0.02100 
0.06600 0.07950 -0.07550 
0.05500 0.16900 -0.01300 
0.02800 0.08750 -0.00700 
-0.00000 -0.02300 -0.05950 
0.05250 0.04150 -0.00550 
-0.05900 -0.04000 -0.07700 
0.01500 0.13650 -0.05700 
-0.02750 0.00350 -0.05200 
0.00300 0.05600 -0.04300 
-0.02300 0.01000 -0.04300 
-0.06900 0.02550 -0.07250 
-0.03400 0.06300 -0.08050 
0.01850 0.12050 0.02750 
0.03450 0.08450 0.13400 
0.00250 0.14000 -0.07350 
0.10000 0.15700 0.04550 
-0.08300 0.00300 -0.06800 
-0.05900 -0.01550 -0.07100 
-0.09700 0.01250 -0.07750 
-0.01450 0.08550 -0.06850 
-0.01850 -0.00150 -0.03100 
0.03250 0.03700 -0.02800 
0.00300 -0.00500 0.01850 
-0.04500 0.03950 -0.01000 
-0.00600 -0.01400 -0.04400 
0.04400 0.00950 -0.03500 
-0.02400 0.05800 0.04500 
0.04250 0.13500 -0.00500 
0.04400 0.07400 -0.00650 
-0.00200 0.05750 0.03750 
0.14600 0.16050 0.01000 
0.09300 0.04150 -0.09650 
-0.03300 0.02550 -0.08900 
-0.04450 0.01550 -0.00400 
0.02350 -0.00650 0.02250 
-0.05400 0.00500 -0.01600 
0.12950 0.04200 0.07300 
-0.00400 0.05600 -0.06250 
0.00850 0.09100 0.05750 
0.00050 0.06200 -0.01900 
-0.00500 0.04450 -0.02850 
-0.02550 0.05200 -0.12500 
-0.00200 0.05850 -0.01250 
-0.01150 0.01550 -0.09000 
0.05450 0.16200 -0.11750 
0.03700 -0.03700 -0.00900 
0.06450 0.02900 -0.02300 
0.07900 0.11750 -0.10700 
0.05850 0.03100 0.06000 
0.01600 0.14150 -0.02000 
0.02500 -0.00650 -0.01800 
-0.04950 0.02600 -0.01550 
0.04700 0.05250 -0.05300 
0.05800 0.04750 0.08700 
-0.00950 0.05000 -0.09950 
0.06350 0.09250 -0.13250 
-0.00850 0.01750 -0.14500 
-0.04750 -0.00400 -0.01450 
0.02700 0.06350 -0.00750 
0.09300 0.16700 -0.05650 
0.01650 0.07700 0.04750 
-0.01200 0.05750 -0.08600 
-0.05950 -0.03200 0.02050 
0.10450 0.19800 -0.05900 
0.01400 0.07550 0.03750 
0.08350 0.08950 -0.04950 
0.04650 0.10000 0.07250 
-0.05550 0.06400 -0.07150 
0.01700 0.08900 0.00900 
-0.06150 0.15350 -0.09100 
0.02650 0.00400 -0.02000 
-0.01850 -0.00450 -0.00700 
0.04700 0.03450 -0.06150 
-0.06800 0.04900 -0.04550 
-0.04900 0.03100 -0.08400 
-0.00700 0.01550 -0.03450 
-0.00500 -0.02350 -0.07350 
-0.02950 -0.06250 0.02650 
0.07750 0.04600 0.03150 
0.08800 0.09950 0.04750 
0.00300 0.02200 -0.02800 
0.04400 0.10150 -0.04200 
0.13000 0.12950 -0.06700 
0.02350 0.11550 -0.05600 
0.06350 -0.04750 -0.04300 
-0.03150 0.01850 -0.12450 
0.04250 0.04050 -0.10400 
0.01100 0.08500 -0.06500 
0.10900 0.15600 0.17700 
0.01950 -0.01050 0.07900 
0.00500 0.05450 0.02150 
0.00550 0.01900 -0.02650 
0.06600 0.02950 -0.12850 
0.02100 0.01600 0.04200 
0.07100 0.07950 -0.02450 
0.04100 0.00050 -0.11200 
0.00850 0.06400 0.09500 
-0.03750 0.03800 -0.10800 
-0.01050 0.03000 0.00700 
-0.03750 0.01100 -0.08300 
0.00500 0.07500 0.04450 
-0.00350 0.12150 0.00200 
0.00450 0.06100 0.00100 
0.04050 0.04450 -0.02250 
0.01000 -0.02950 -0.07250 
0.00500 0.05600 -0.03350 
-0.01350 0.07000 -0.04800 
0.00050 0.11600 0.04800 
0.02450 0.13400 -0.03250 
0.13200 0.08450 -0.09450 
0.03850 0.14950 -0.06400 
-0.01300 0.05250 -0.00350 
0.09200 0.15200 -0.01150 
-0.03100 0.11350 -0.01600 
-0.00550 0.13400 -0.01950 
-0.03250 0.15050 0.01150 
-0.00650 0.04950 0.13300 
-0.05050 0.11450 -0.05200 
0.11800 0.13650 0.03800 
0.00550 0.09250 0.01000 
0.04350 0.15100 -0.02650 
0.08050 0.12150 -0.02900 
0.02300 0.05100 -0.04400 
0.02350 0.08850 -0.00550 
0.03100 0.00700 -0.00250 
0.02650 0.09750 -0.04150 
0.06600 0.12850 -0.02950 
-0.07000 0.13250 -0.08950 
-0.05450 0.10800 -0.05400 
0.03850 0.09900 0.03150 
0.05650 0.15200 -0.04200 