# vtk DataFile Version 2.0 
Xm, Ym, Zm, Uvecs, timestep 10082 
ASCII 
 
DATASET POLYDATA POINTS 529 float 
  3.002   7.784 -70.275 
  6.094   5.845 -71.685 
  0.607   7.309 -66.475 
 -7.516  -1.998 -70.860 
  5.246  -0.940 -69.214 
  7.646   2.514 -68.787 
  1.981   4.713 -70.608 
 -7.877  -6.435 -70.906 
 -2.409  -2.160 -73.937 
 -8.250   7.760 -66.927 
  5.155   1.379 -68.099 
  5.702   9.061 -71.674 
  9.264   2.065 -70.761 
 -7.033  -0.173 -64.631 
  2.327  -2.718 -74.031 
 -2.822   6.535 -69.725 
-15.587   7.986 -74.499 
  6.027   5.313 -72.100 
 14.307  -1.125 -72.526 
  3.498   5.375 -71.008 
 -2.369   6.585 -66.760 
 -2.873  -0.317 -70.897 
 -4.732  -8.495 -71.511 
  9.629   2.492 -70.962 
 -3.460   0.892 -71.597 
 -8.509   7.985 -73.736 
  4.355  10.739 -68.242 
 -9.136   3.269 -72.161 
  5.566  -7.381 -64.339 
 -4.941  -1.316 -67.992 
 10.442   5.495 -66.957 
 -5.427   1.268 -67.468 
 -0.370   2.830 -71.820 
 -4.188   4.965 -73.377 
 -7.678  -3.159 -77.829 
 -1.640   1.384 -75.201 
 -2.940   6.417 -71.786 
 -1.595   6.430 -71.733 
  4.558   4.956 -68.513 
 -9.641  -7.724 -67.267 
 -3.197   3.940 -68.672 
 -2.426   6.240 -74.644 
  5.928   2.143 -68.708 
  5.342   9.942 -65.661 
  7.666  10.865 -67.864 
  1.928   5.152 -74.738 
-12.503  12.139 -73.299 
  5.688  -6.745 -68.198 
 -1.009   5.617 -64.194 
  4.586   6.096 -67.857 
  3.628   7.614 -66.018 
 -1.595   1.688 -69.701 
  1.668   2.620 -63.711 
  0.803  -4.653 -64.297 
-11.544  10.628 -70.999 
 10.982  -2.605 -73.048 
 -7.200   5.354 -67.362 
  7.181   9.726 -64.035 
  2.053  -8.665 -69.408 
  0.354   5.439 -75.767 
 -9.061  12.185 -69.064 
  9.843  -0.250 -67.782 
 15.153   0.006 -71.890 
 -8.915   2.854 -67.819 
 -8.178   9.872 -64.249 
-10.601  -2.699 -69.592 
  7.800  -7.390 -67.051 
 -6.628   6.484 -72.567 
  4.055   9.960 -67.004 
 -0.532  -0.678 -70.438 
 -1.162  -7.940 -75.057 
-14.820   8.241 -69.781 
  0.317   1.037 -65.447 
  1.317  -0.060 -75.885 
  1.077 -10.594 -70.159 
  4.641   2.766 -68.574 
  5.428 -12.057 -69.133 
  2.556   7.818 -61.692 
 10.281   2.962 -72.618 
 -2.255   5.951 -63.163 
  6.800   6.960 -66.999 
  1.501  -7.763 -65.395 
 -0.403  11.178 -64.028 
 -8.237   0.075 -66.363 
-12.757   0.721 -70.831 
 -0.153   4.902 -67.129 
 14.246   4.815 -65.972 
  6.871   1.708 -68.627 
 -2.744   7.755 -67.288 
 -6.622   6.334 -65.946 
  3.289  -4.402 -67.733 
 -6.784  -7.085 -70.416 
 -9.942  -3.721 -70.430 
 -4.720   3.565 -62.682 
 -1.188 -10.904 -65.560 
 -1.950   0.161 -64.838 
  6.165 -11.200 -72.607 
  3.943  -2.463 -65.733 
  6.906  -6.058 -68.093 
 -7.140  -4.593 -67.799 
-10.206   7.805 -68.932 
 -6.839   7.534 -61.717 
  1.656  -3.531 -63.177 
  9.837  -3.254 -67.182 
  6.865  -2.821 -67.035 
 -1.848  -3.716 -67.666 
  0.365 -11.270 -71.159 
 -1.737   1.569 -67.657 
 -9.719  10.711 -65.846 
 -6.156  -0.717 -62.584 
 -1.960 -11.234 -71.136 
-11.038   1.036 -64.076 
  9.319   8.068 -68.112 
 -9.986  -2.742 -63.564 
 -5.746   7.761 -68.992 
-15.819  -2.798 -72.615 
 -1.579  -6.769 -70.731 
  2.923  -8.843 -64.010 
  4.035   5.156 -63.388 
  2.067   3.133 -69.314 
  2.110  -5.041 -64.841 
 -3.978   5.697 -66.340 
-10.227 -11.081 -68.099 
-10.459   7.875 -65.829 
 10.407   1.023 -63.550 
 -3.805   3.035 -73.775 
  7.893  -0.515 -73.418 
 -4.910  -8.229 -68.428 
 11.208  -3.179 -65.276 
  1.601   7.935 -71.424 
 -0.464  -4.628 -63.992 
  1.204  -4.031 -71.700 
 -1.019  -8.445 -65.246 
  5.475   7.032 -76.209 
 -0.544   3.162 -75.195 
-10.477  10.480 -69.437 
 -4.594   2.262 -61.732 
 -8.472  -4.087 -64.567 
 13.611   3.123 -68.988 
  7.260  -7.994 -65.948 
  0.540  -1.221 -72.890 
  6.460   8.687 -66.698 
  3.031 -11.535 -72.066 
-13.274  -1.281 -67.567 
  8.750 -11.310 -68.688 
 -2.827   6.674 -65.919 
  3.117  10.390 -75.808 
  4.056  -5.178 -73.015 
  3.540  -0.587 -69.523 
  0.325  -5.496 -64.935 
-15.982 -10.189 -73.137 
 -3.269  -7.054 -68.291 
 -2.155  10.924 -67.930 
-15.344   5.988 -70.504 
 15.026  10.455 -74.287 
-10.398  -3.926 -66.512 
  6.843   5.592 -64.843 
-13.712   0.985 -67.430 
 -1.445   5.920 -69.150 
-13.865  10.486 -67.733 
 -3.647  10.857 -67.858 
 10.955  -0.773 -65.948 
 -8.114   9.271 -66.682 
-14.024   1.249 -69.793 
  7.386 -11.000 -65.008 
 -9.093   3.724 -75.426 
-13.929  -2.436 -68.727 
 -9.318  12.623 -64.038 
  6.172   9.289 -63.384 
 -6.579  -3.645 -66.213 
 -4.978  10.431 -64.203 
 -2.638  -0.025 -64.682 
  6.829  -6.149 -64.679 
  8.864  12.380 -70.507 
 -9.695   3.715 -71.977 
 -1.373  -2.787 -73.249 
-12.689   7.776 -66.482 
-12.062  -5.186 -64.704 
 -3.585  -3.288 -62.123 
 -2.259  10.240 -66.127 
  8.913   8.273 -70.780 
 12.214   6.947 -68.054 
  4.147 -10.920 -68.511 
  3.068 -12.549 -70.395 
 -2.807  -0.962 -63.782 
 -4.109  -2.619 -62.959 
  7.176   0.987 -69.044 
  8.596   8.422 -66.810 
  8.945  -7.938 -65.457 
 -3.687   3.897 -66.972 
 11.678   1.994 -63.474 
  0.159  -8.688 -66.389 
-15.575   2.627 -74.009 
 -7.040   3.037 -71.178 
 15.303  11.625 -73.544 
  1.137   3.242 -70.943 
-11.069   2.755 -72.198 
 -2.226  11.083 -70.730 
 10.483   1.904 -71.445 
 -6.056   8.082 -68.738 
  9.457  -0.502 -71.222 
 10.369   4.252 -69.694 
 -2.572   0.416 -69.274 
  2.492   2.607 -65.745 
 -8.723   1.555 -62.557 
 -4.059  -6.946 -70.075 
-12.964  -6.785 -72.700 
 -4.588   7.786 -73.169 
 14.794   2.937 -66.621 
-14.018  -8.790 -74.859 
  5.228  -9.389 -61.909 
  5.723  -3.821 -67.646 
-12.950  12.836 -66.691 
-12.238   7.720 -72.580 
  8.316  -4.633 -68.946 
 12.402  -1.399 -69.060 
 15.481  -3.252 -74.209 
 11.166  -5.859 -70.450 
-10.310  -1.678 -62.321 
  5.982 -10.055 -67.111 
-13.081   6.297 -69.481 
 -4.703   8.012 -70.043 
  8.758  -5.771 -65.754 
-14.023 -11.567 -70.835 
 12.208   7.374 -67.415 
 -9.370   8.753 -63.103 
 -5.231  -0.338 -75.521 
 -4.276  -1.898 -64.322 
-14.503   4.512 -69.487 
  6.975  -7.202 -64.630 
 11.135  -1.816 -67.712 
 -1.555   1.399 -64.255 
  1.020  -1.790 -63.020 
 17.258  -3.537 -68.641 
 -3.897  10.835 -63.752 
 -1.498  -6.514 -62.364 
-13.611  -3.123 -65.585 
-14.364   2.649 -67.932 
-11.438   5.499 -68.535 
 15.371   0.495 -65.110 
 -5.309  -3.998 -72.571 
 14.078  11.151 -69.620 
  5.331   4.529 -63.916 
  8.396   8.291 -65.087 
  2.189   5.282 -65.793 
 -4.092   1.870 -75.025 
 16.529  -0.780 -66.916 
  1.647   5.705 -61.811 
 10.755 -11.441 -71.981 
  0.762  12.142 -74.091 
 15.839   9.970 -70.719 
 -6.255   6.410 -70.684 
 -7.610  11.352 -71.287 
-13.728  11.063 -74.543 
  0.573  -9.953 -73.281 
  7.044   8.995 -74.110 
  7.718  11.911 -61.958 
 -5.742  -1.250 -62.330 
 -6.035  11.065 -76.368 
 13.753   2.082 -74.354 
  8.187  -7.840 -64.559 
 10.650   6.456 -68.259 
 11.924  10.372 -66.566 
 -7.364  -3.678 -68.626 
-12.239  -5.229 -78.025 
 -6.258  -6.361 -75.861 
 -1.111  -5.204 -69.027 
 -7.319  -3.098 -68.166 
-12.008  -4.338 -75.483 
 11.586  -0.217 -73.711 
 14.047  -1.300 -65.749 
-11.283  -4.112 -76.065 
-10.303  -4.343 -74.435 
 15.089   1.456 -72.018 
-14.154   9.210 -72.435 
-13.403   6.188 -67.661 
 -1.109  -9.652 -68.245 
  6.238   1.569 -71.828 
-11.746   0.909 -64.894 
  1.273  -8.206 -65.308 
 -1.527  -6.916 -69.165 
 12.137  10.703 -68.563 
 -4.692  -3.534 -65.982 
 11.892  -5.736 -70.793 
-14.764 -11.096 -71.126 
  0.901  11.740 -71.477 
 13.482   7.439 -64.380 
 11.217   8.474 -62.770 
  1.247  -1.680 -73.361 
 -9.124  -7.338 -67.870 
 -6.931  12.109 -73.785 
-14.724  -0.488 -73.785 
  7.574   5.772 -60.411 
  9.509  -2.874 -71.162 
 11.993   7.958 -75.970 
-15.884   3.980 -72.098 
-13.760 -12.176 -66.456 
 -0.523  -4.598 -60.646 
 -9.944  11.390 -63.846 
-11.741  -2.239 -65.811 
  6.205   1.976 -67.139 
 11.534   8.970 -66.509 
 12.461  -2.362 -72.257 
 -2.433  -4.829 -66.849 
  9.922  -6.569 -66.016 
 -3.647  -8.119 -74.627 
-11.108  11.607 -65.443 
-14.213   0.649 -66.869 
 16.067  -8.668 -70.896 
 -5.970  -0.661 -75.343 
 14.635   3.970 -73.897 
 -5.188 -12.138 -66.527 
  1.815  -4.104 -71.467 
  1.724  10.259 -63.084 
-12.158  -2.880 -65.470 
  7.696   7.375 -73.302 
 -2.518  10.672 -75.462 
  3.790  -1.160 -66.812 
 12.288   4.831 -74.166 
  9.923   3.515 -62.513 
  8.233  -9.855 -70.422 
 -5.016   4.117 -65.477 
-11.519  -6.886 -64.111 
 -4.473 -10.532 -68.098 
-15.249  -1.233 -73.213 
 15.701  -2.377 -73.876 
-13.398  12.044 -67.541 
 -1.446  -6.043 -77.496 
 -5.825   1.259 -71.492 
-12.237  -1.108 -74.675 
 15.484  -7.760 -69.626 
  0.992   6.335 -73.273 
  2.170  -6.182 -67.501 
  5.380  -2.785 -67.737 
 17.380  -0.985 -72.941 
  7.724 -11.553 -70.150 
 -9.614  -3.209 -76.339 
 -8.207   3.162 -73.950 
 -3.990  -1.542 -74.407 
  2.464  -1.234 -72.924 
 -4.647  -5.090 -70.989 
  1.167   7.495 -75.133 
  0.572  -2.862 -61.089 
  6.825  -0.631 -72.456 
 -4.899   5.619 -69.678 
-10.413  -0.835 -75.764 
 -5.132  -0.099 -69.963 
 -5.697   7.136 -71.542 
  7.065  -8.370 -68.578 
 -6.318   1.662 -66.784 
  0.082  12.722 -65.268 
 11.181  11.368 -65.389 
 -2.872  11.685 -61.563 
 16.388   8.733 -65.150 
 -5.065   0.493 -70.239 
  2.104   7.087 -70.549 
  9.037  -7.375 -64.066 
 -8.800  11.466 -64.017 
-12.888  -5.457 -71.738 
 14.428  -5.825 -66.670 
  9.175 -10.625 -60.374 
 -0.280   9.380 -73.980 
 13.645   5.306 -75.327 
 11.608  -8.890 -67.044 
 -1.831  13.044 -62.102 
 -1.363   0.383 -69.526 
 -3.279   0.885 -74.213 
 11.603   1.523 -66.694 
 14.544  -9.908 -64.751 
 -6.042  10.499 -64.022 
 -2.726  10.520 -55.915 
 -9.503  -9.700 -63.282 
  9.254  -3.744 -62.523 
  2.090 -10.884 -72.560 
  5.112   4.640 -61.121 
  2.564  -7.777 -62.636 
 -1.299 -11.487 -71.119 
  3.733  -2.409 -60.760 
 -7.732   1.184 -65.808 
  2.316   2.618 -76.879 
 -9.485   9.849 -75.168 
  3.180  -3.005 -59.826 
  4.139  -5.901 -76.393 
 -8.800 -12.719 -65.822 
 -5.993  -6.694 -60.413 
  8.247  -8.292 -72.196 
 -1.858   9.776 -74.334 
-11.473   5.504 -61.962 
 12.855  -1.881 -75.522 
-13.317 -11.200 -71.247 
 -7.406  -0.567 -61.830 
 15.937   7.221 -68.568 
 10.316   9.569 -67.677 
 -3.297  -1.321 -66.136 
 13.572  -1.529 -62.977 
 -6.627 -11.192 -65.674 
 10.570  11.028 -63.921 
 13.933 -11.681 -65.094 
  2.495   6.232 -72.986 
  2.875   1.203 -69.117 
  1.780  -8.230 -65.338 
  5.295  -4.760 -81.768 
  8.346  -0.839 -73.758 
 -5.953   2.777 -61.859 
-13.223  11.824 -65.575 
 -4.181  -4.322 -69.811 
 -5.392  -2.197 -75.463 
  4.356  -2.533 -63.366 
  2.986   3.894 -77.341 
  6.153   1.708 -65.774 
 -8.201  11.618 -70.549 
  0.315   5.974 -59.407 
 -6.055   1.032 -62.194 
  5.236 -11.214 -74.219 
  4.964  -6.183 -76.511 
 -4.068  -8.171 -60.070 
 15.872  -9.753 -67.910 
 13.143  -1.559 -73.237 
  6.463   6.071 -63.558 
 13.040  -1.960 -62.393 
-12.320   2.906 -77.391 
 -3.174  -6.082 -59.624 
-14.017  -0.255 -65.799 
  8.291   9.707 -72.191 
  6.040   0.714 -63.100 
 -3.673  -0.774 -66.959 
  9.693 -11.425 -66.355 
 11.730   2.165 -67.804 
-11.506  -7.471 -71.434 
 18.232   4.029 -71.225 
 16.743  -6.017 -63.606 
 17.910 -11.459 -68.578 
 14.819  -5.229 -73.323 
 14.831 -10.155 -74.523 
 -1.095   0.361 -59.051 
  0.169 -10.545 -67.430 
  9.355 -10.008 -63.296 
 17.261  -2.763 -66.674 
-15.280  -6.543 -74.758 
-10.700  -2.458 -62.210 
 -3.409  -7.385 -62.255 
  8.550  -0.992 -63.972 
  5.392   9.326 -61.319 
  8.965  -0.064 -71.894 
  6.584   3.118 -63.260 
 17.427  -8.032 -66.438 
  6.178   0.477 -73.531 
 -0.228   3.737 -59.948 
 -9.527  10.595 -75.160 
 -8.805  -7.841 -70.330 
 17.699   7.583 -73.323 
  7.019  -9.417 -65.544 
 14.095  -3.806 -65.175 
  9.773   8.299 -63.201 
-10.533   3.985 -74.292 
 12.596   0.395 -71.996 
 10.429   5.588 -64.679 
 15.157  -0.483 -64.865 
-10.909 -11.225 -60.841 
-15.439   1.263 -74.014 
-14.049   8.085 -75.589 
 -9.248 -12.407 -66.119 
  1.589  10.387 -65.109 
 17.557 -12.586 -67.989 
 14.160   0.194 -63.372 
 -7.830  13.533 -61.508 
 -4.199  -8.915 -58.972 
  7.047   1.321 -61.103 
 -7.967   5.808 -59.956 
 12.369   8.888 -73.034 
 12.622  10.250 -64.602 
  1.260   0.880 -65.647 
 17.033 -11.239 -68.189 
  6.196  -2.136 -64.528 
 18.688 -12.695 -69.668 
  1.861  -4.652 -60.915 
 12.626   8.678 -64.520 
 18.462  11.015 -72.225 
-13.636  -9.303 -69.145 
 -9.048 -12.101 -61.531 
  1.817  -0.379 -70.204 
  9.198  -5.329 -62.878 
-13.018   9.047 -68.139 
-16.167  -1.214 -72.311 
 13.254   3.397 -65.245 
 -4.406  -0.418 -64.106 
 -2.032   7.992 -76.392 
 16.632   6.541 -65.853 
 17.995  -6.343 -67.002 
 -9.944   5.995 -64.093 
 -9.758   1.235 -67.064 
 -2.346  -1.880 -69.837 
 16.528   2.615 -72.542 
 -6.040  11.424 -69.547 
  1.794 -11.527 -75.278 
 -7.061   6.640 -67.970 
-10.586   1.774 -73.583 
  5.833  -1.349 -72.240 
  3.313 -11.350 -69.487 
 -0.744  -3.040 -67.234 
 -6.180  -7.971 -75.180 
-14.290  10.913 -77.041 
-12.765   3.953 -75.112 
 -5.482   6.617 -69.281 
  7.995  -4.316 -75.236 
  1.968   8.469 -71.691 
 -4.390   8.587 -64.026 
  1.838  10.779 -69.314 
 -8.480   3.839 -69.290 
 -7.044 -10.824 -71.508 
  3.224  -5.630 -75.596 
 -4.550  11.856 -72.611 
 -0.589  -0.478 -70.469 
-13.300   7.364 -64.069 
-11.770  12.160 -66.633 
 10.334  -1.825 -63.428 
 -9.180   6.572 -73.198 
 13.166  -4.255 -66.473 
 -2.764  -1.131 -68.495 
 -6.652  -2.242 -68.114 
  5.835  10.981 -74.838 
 -5.458  -7.380 -71.304 
  4.325  -7.537 -67.225 
 -7.808   0.484 -72.076 
  3.702   8.656 -64.394 
 -5.912  -7.154 -65.323 
  0.553  -5.670 -63.736 
 14.106   0.547 -59.585 
 -9.982  -2.976 -72.174 

 VERTICES 529 1058 
1 0 
1 1 
1 2 
1 3 
1 4 
1 5 
1 6 
1 7 
1 8 
1 9 
1 10 
1 11 
1 12 
1 13 
1 14 
1 15 
1 16 
1 17 
1 18 
1 19 
1 20 
1 21 
1 22 
1 23 
1 24 
1 25 
1 26 
1 27 
1 28 
1 29 
1 30 
1 31 
1 32 
1 33 
1 34 
1 35 
1 36 
1 37 
1 38 
1 39 
1 40 
1 41 
1 42 
1 43 
1 44 
1 45 
1 46 
1 47 
1 48 
1 49 
1 50 
1 51 
1 52 
1 53 
1 54 
1 55 
1 56 
1 57 
1 58 
1 59 
1 60 
1 61 
1 62 
1 63 
1 64 
1 65 
1 66 
1 67 
1 68 
1 69 
1 70 
1 71 
1 72 
1 73 
1 74 
1 75 
1 76 
1 77 
1 78 
1 79 
1 80 
1 81 
1 82 
1 83 
1 84 
1 85 
1 86 
1 87 
1 88 
1 89 
1 90 
1 91 
1 92 
1 93 
1 94 
1 95 
1 96 
1 97 
1 98 
1 99 
1 100 
1 101 
1 102 
1 103 
1 104 
1 105 
1 106 
1 107 
1 108 
1 109 
1 110 
1 111 
1 112 
1 113 
1 114 
1 115 
1 116 
1 117 
1 118 
1 119 
1 120 
1 121 
1 122 
1 123 
1 124 
1 125 
1 126 
1 127 
1 128 
1 129 
1 130 
1 131 
1 132 
1 133 
1 134 
1 135 
1 136 
1 137 
1 138 
1 139 
1 140 
1 141 
1 142 
1 143 
1 144 
1 145 
1 146 
1 147 
1 148 
1 149 
1 150 
1 151 
1 152 
1 153 
1 154 
1 155 
1 156 
1 157 
1 158 
1 159 
1 160 
1 161 
1 162 
1 163 
1 164 
1 165 
1 166 
1 167 
1 168 
1 169 
1 170 
1 171 
1 172 
1 173 
1 174 
1 175 
1 176 
1 177 
1 178 
1 179 
1 180 
1 181 
1 182 
1 183 
1 184 
1 185 
1 186 
1 187 
1 188 
1 189 
1 190 
1 191 
1 192 
1 193 
1 194 
1 195 
1 196 
1 197 
1 198 
1 199 
1 200 
1 201 
1 202 
1 203 
1 204 
1 205 
1 206 
1 207 
1 208 
1 209 
1 210 
1 211 
1 212 
1 213 
1 214 
1 215 
1 216 
1 217 
1 218 
1 219 
1 220 
1 221 
1 222 
1 223 
1 224 
1 225 
1 226 
1 227 
1 228 
1 229 
1 230 
1 231 
1 232 
1 233 
1 234 
1 235 
1 236 
1 237 
1 238 
1 239 
1 240 
1 241 
1 242 
1 243 
1 244 
1 245 
1 246 
1 247 
1 248 
1 249 
1 250 
1 251 
1 252 
1 253 
1 254 
1 255 
1 256 
1 257 
1 258 
1 259 
1 260 
1 261 
1 262 
1 263 
1 264 
1 265 
1 266 
1 267 
1 268 
1 269 
1 270 
1 271 
1 272 
1 273 
1 274 
1 275 
1 276 
1 277 
1 278 
1 279 
1 280 
1 281 
1 282 
1 283 
1 284 
1 285 
1 286 
1 287 
1 288 
1 289 
1 290 
1 291 
1 292 
1 293 
1 294 
1 295 
1 296 
1 297 
1 298 
1 299 
1 300 
1 301 
1 302 
1 303 
1 304 
1 305 
1 306 
1 307 
1 308 
1 309 
1 310 
1 311 
1 312 
1 313 
1 314 
1 315 
1 316 
1 317 
1 318 
1 319 
1 320 
1 321 
1 322 
1 323 
1 324 
1 325 
1 326 
1 327 
1 328 
1 329 
1 330 
1 331 
1 332 
1 333 
1 334 
1 335 
1 336 
1 337 
1 338 
1 339 
1 340 
1 341 
1 342 
1 343 
1 344 
1 345 
1 346 
1 347 
1 348 
1 349 
1 350 
1 351 
1 352 
1 353 
1 354 
1 355 
1 356 
1 357 
1 358 
1 359 
1 360 
1 361 
1 362 
1 363 
1 364 
1 365 
1 366 
1 367 
1 368 
1 369 
1 370 
1 371 
1 372 
1 373 
1 374 
1 375 
1 376 
1 377 
1 378 
1 379 
1 380 
1 381 
1 382 
1 383 
1 384 
1 385 
1 386 
1 387 
1 388 
1 389 
1 390 
1 391 
1 392 
1 393 
1 394 
1 395 
1 396 
1 397 
1 398 
1 399 
1 400 
1 401 
1 402 
1 403 
1 404 
1 405 
1 406 
1 407 
1 408 
1 409 
1 410 
1 411 
1 412 
1 413 
1 414 
1 415 
1 416 
1 417 
1 418 
1 419 
1 420 
1 421 
1 422 
1 423 
1 424 
1 425 
1 426 
1 427 
1 428 
1 429 
1 430 
1 431 
1 432 
1 433 
1 434 
1 435 
1 436 
1 437 
1 438 
1 439 
1 440 
1 441 
1 442 
1 443 
1 444 
1 445 
1 446 
1 447 
1 448 
1 449 
1 450 
1 451 
1 452 
1 453 
1 454 
1 455 
1 456 
1 457 
1 458 
1 459 
1 460 
1 461 
1 462 
1 463 
1 464 
1 465 
1 466 
1 467 
1 468 
1 469 
1 470 
1 471 
1 472 
1 473 
1 474 
1 475 
1 476 
1 477 
1 478 
1 479 
1 480 
1 481 
1 482 
1 483 
1 484 
1 485 
1 486 
1 487 
1 488 
1 489 
1 490 
1 491 
1 492 
1 493 
1 494 
1 495 
1 496 
1 497 
1 498 
1 499 
1 500 
1 501 
1 502 
1 503 
1 504 
1 505 
1 506 
1 507 
1 508 
1 509 
1 510 
1 511 
1 512 
1 513 
1 514 
1 515 
1 516 
1 517 
1 518 
1 519 
1 520 
1 521 
1 522 
1 523 
1 524 
1 525 
1 526 
1 527 
1 528 
POINT_DATA 529 
SCALARS MeanU double 1 
LOOKUP_TABLE default
0.15950 
0.07858 
0.18634 
0.09700 
0.17221 
0.14965 
0.18926 
0.14327 
0.08994 
0.16345 
0.15659 
0.09218 
0.18873 
0.15653 
0.09157 
0.10618 
0.05549 
0.11709 
0.06215 
0.16385 
0.11214 
0.12810 
0.13366 
0.13128 
0.15389 
0.05907 
0.11838 
0.06840 
0.17307 
0.10675 
0.12566 
0.15463 
0.10231 
0.07436 
0.04259 
0.07152 
0.08805 
0.11090 
0.14679 
0.20097 
0.09800 
0.06560 
0.20852 
0.12738 
0.07395 
0.10668 
0.04404 
0.12805 
0.21675 
0.15435 
0.16496 
0.13273 
0.11112 
0.14942 
0.08942 
0.05190 
0.13265 
0.16423 
0.12363 
0.11522 
0.13890 
0.14868 
0.03443 
0.14318 
0.13170 
0.07416 
0.13492 
0.11168 
0.11158 
0.15728 
0.07024 
0.10026 
0.17523 
0.09415 
0.13027 
0.14887 
0.16552 
0.16305 
0.15386 
0.20960 
0.11459 
0.17624 
0.12496 
0.11865 
0.06032 
0.12483 
0.12587 
0.17461 
0.14887 
0.20062 
0.21753 
0.15200 
0.06643 
0.09358 
0.15786 
0.14477 
0.21068 
0.18191 
0.15574 
0.10791 
0.08248 
0.11734 
0.16747 
0.06195 
0.20799 
0.12674 
0.14569 
0.13199 
0.05895 
0.08385 
0.09488 
0.12801 
0.07648 
0.15513 
0.10399 
0.09329 
0.15472 
0.18151 
0.18332 
0.20580 
0.14306 
0.11147 
0.15399 
0.13544 
0.17358 
0.08842 
0.11195 
0.14486 
0.07098 
0.19780 
0.13576 
0.12062 
0.11612 
0.06489 
0.11723 
0.08689 
0.11170 
0.14662 
0.08568 
0.06802 
0.08081 
0.13410 
0.16939 
0.15894 
0.10386 
0.12525 
0.19420 
0.12168 
0.15914 
0.14874 
0.16746 
0.15034 
0.12208 
0.03308 
0.11042 
0.15535 
0.19112 
0.20794 
0.12263 
0.04530 
0.07942 
0.20574 
0.10359 
0.14004 
0.10882 
0.05447 
0.14284 
0.12164 
0.17800 
0.17590 
0.11981 
0.14986 
0.09180 
0.15998 
0.07480 
0.11524 
0.04399 
0.15610 
0.10477 
0.20083 
0.10329 
0.04804 
0.16969 
0.16135 
0.10770 
0.10374 
0.18339 
0.09969 
0.11773 
0.13967 
0.10450 
0.15442 
0.10265 
0.05629 
0.09862 
0.13775 
0.06109 
0.14521 
0.21051 
0.13811 
0.13861 
0.13207 
0.08330 
0.20101 
0.15138 
0.17790 
0.10864 
0.06231 
0.08465 
0.13735 
0.20048 
0.18327 
0.04192 
0.06911 
0.10319 
0.14074 
0.07705 
0.05786 
0.09377 
0.17877 
0.03584 
0.10260 
0.03757 
0.12167 
0.05377 
0.13120 
0.08535 
0.13968 
0.01279 
0.04427 
0.06256 
0.12942 
0.13393 
0.07468 
0.16209 
0.12690 
0.09344 
0.15070 
0.13060 
0.07661 
0.13674 
0.07214 
0.19862 
0.17040 
0.16903 
0.07722 
0.08080 
0.16663 
0.03953 
0.11011 
0.08785 
0.17122 
0.10350 
0.06355 
0.15856 
0.12182 
0.11547 
0.03921 
0.13624 
0.05628 
0.11971 
0.07976 
0.08647 
0.05458 
0.09093 
0.09783 
0.19120 
0.08217 
0.05412 
0.04055 
0.05849 
0.02867 
0.10202 
0.04889 
0.04424 
0.04260 
0.17761 
0.17775 
0.22254 
0.13386 
0.17289 
0.05140 
0.17818 
0.05221 
0.12745 
0.09672 
0.18800 
0.14905 
0.07316 
0.12271 
0.10958 
0.15721 
0.21037 
0.10691 
0.18138 
0.18055 
0.08284 
0.16691 
0.08436 
0.13557 
0.13546 
0.07090 
0.02484 
0.21504 
0.13371 
0.16197 
0.05884 
0.18904 
0.04826 
0.09026 
0.09248 
0.15278 
0.13957 
0.17764 
0.15038 
0.05465 
0.08625 
0.16958 
0.12069 
0.17042 
0.15688 
0.09479 
0.10909 
0.09885 
0.16217 
0.06219 
0.04530 
0.06686 
0.06459 
0.07779 
0.02699 
0.07601 
0.17431 
0.25728 
0.13512 
0.16933 
0.03624 
0.04240 
0.08296 
0.11244 
0.21255 
0.10187 
0.09212 
0.12527 
0.14802 
0.05849 
0.13482 
0.06226 
0.05003 
0.18855 
0.12066 
0.10572 
0.14808 
0.12355 
0.14588 
0.17892 
0.11859 
0.11631 
0.17004 
0.10209 
0.09128 
0.08740 
0.07262 
0.11877 
0.08384 
0.09611 
0.09522 
0.12256 
0.17927 
0.07903 
0.18380 
0.08578 
0.25254 
0.21645 
0.19055 
0.21258 
0.08726 
0.11867 
0.12317 
0.05306 
0.06474 
0.17852 
0.14257 
0.17407 
0.11587 
0.10407 
0.08484 
0.13713 
0.03240 
0.13079 
0.10187 
0.07630 
0.07463 
0.14425 
0.07944 
0.11653 
0.08376 
0.08524 
0.13130 
0.15621 
0.21544 
0.18423 
0.07617 
0.13778 
0.07142 
0.14236 
0.15489 
0.17976 
0.06414 
0.12979 
0.10222 
0.19897 
0.06391 
0.10950 
0.11781 
0.15371 
0.04341 
0.06447 
0.13114 
0.11592 
0.06183 
0.16918 
0.14817 
0.12433 
0.14986 
0.12451 
0.13191 
0.06181 
0.13208 
0.06486 
0.21893 
0.08518 
0.12144 
0.02066 
0.11866 
0.19590 
0.14845 
0.06537 
0.15494 
0.26453 
0.09586 
0.18783 
0.18216 
0.14945 
0.19927 
0.05489 
0.14990 
0.15754 
0.09689 
0.18148 
0.13679 
0.10720 
0.11396 
0.13685 
0.07083 
0.09437 
0.13281 
0.07995 
0.15507 
0.17925 
0.07080 
0.16172 
0.13950 
0.11588 
0.12436 
0.10464 
0.10791 
0.16841 
0.17902 
0.09464 
0.11173 
0.18844 
0.08681 
0.19308 
0.10468 
0.20947 
0.18717 
0.14804 
0.14596 
0.07190 
0.10905 
0.09969 
0.06519 
0.12541 
0.14659 
0.14944 
0.10046 
0.12592 
0.06936 
0.22168 
0.14885 
0.13447 
0.04209 
0.03906 
0.13574 
0.11152 
0.16138 
0.15444 
0.19018 
0.14510 
0.10781 
0.05700 
0.10250 
0.13617 
0.07149 
0.10132 
0.11178 
0.14554 
0.12203 
0.11741 
0.12699 
0.12908 
0.12763 
0.15664 
0.09664 
0.18521 
0.07867 
0.16042 
0.11183 
0.11103 
0.18686 
0.12696 
0.14696 
0.02967 
0.11432 
0.12590 
0.13668 
0.09485 
0.12942 

 VECTORS Umean float 
0.04650 0.14850 -0.03500 
-0.01150 0.07550 -0.01850 
0.02250 0.17850 -0.04850 
0.02800 0.07950 0.04800 
0.03700 0.15750 -0.05900 
0.01100 0.11300 -0.09750 
-0.00700 0.17550 -0.07050 
0.02150 0.14100 0.01350 
0.01700 0.08500 -0.02400 
0.11150 0.11850 -0.01550 
0.01350 0.12950 -0.08700 
-0.01450 0.04250 -0.08050 
0.07650 0.14200 -0.09800 
0.03450 0.12750 -0.08400 
-0.01650 0.09000 0.00350 
0.06800 0.08100 -0.00950 
0.00650 0.05500 -0.00350 
0.00500 0.08850 -0.07650 
0.01750 0.03250 -0.05000 
-0.02500 0.15000 -0.06100 
0.01750 0.10250 0.04200 
0.07450 0.09850 -0.03400 
0.01750 0.13050 0.02300 
0.06550 0.10450 -0.04500 
0.07200 0.13600 -0.00100 
0.01650 0.05600 -0.00900 
-0.02000 0.11650 -0.00650 
0.06250 0.02400 0.01400 
-0.05550 0.14800 -0.07050 
0.01450 0.09850 -0.03850 
0.02150 0.07500 -0.09850 
0.04800 0.14300 0.03400 
0.05300 0.08700 -0.00950 
0.05150 0.05250 -0.01100 
-0.01250 0.03700 0.01700 
0.04350 0.05350 -0.01900 
0.02600 0.07950 0.02750 
0.01750 0.10650 0.02550 
0.02700 0.14350 -0.01500 
-0.05500 0.18150 -0.06650 
0.04650 0.07100 0.04900 
0.00950 0.05150 -0.03950 
0.00450 0.13600 -0.15800 
0.05000 0.11700 -0.00600 
-0.05400 0.03150 0.03950 
0.04950 0.07500 -0.05750 
0.04300 0.00050 -0.00950 
0.09650 0.05800 -0.06100 
0.08500 0.16950 0.10500 
0.05900 0.14250 0.00600 
0.05050 0.14450 -0.06150 
0.03550 0.11750 0.05050 
0.01450 0.10900 0.01600 
0.07700 0.06800 -0.10850 
0.07050 0.05500 -0.00050 
-0.00500 0.01300 -0.05000 
0.07850 0.10650 0.00950 
0.03250 0.16050 0.01250 
0.05500 0.06450 -0.09000 
0.01800 0.03100 -0.10950 
0.05450 0.04100 -0.12100 
0.05550 0.08050 -0.11200 
0.02050 0.01800 -0.02100 
0.10000 0.04900 0.09000 
0.01150 0.13050 -0.01350 
0.01050 0.05800 0.04500 
0.13300 -0.00550 -0.02200 
0.09250 -0.00300 -0.06250 
0.00750 0.10800 -0.02700 
0.02850 0.10400 0.11450 
0.06350 0.00100 -0.03000 
0.09450 0.02650 -0.02050 
0.05600 0.15300 -0.06450 
0.01550 0.08900 -0.02650 
0.09700 0.04800 -0.07250 
0.02750 0.13750 -0.05000 
0.14450 0.01400 -0.07950 
0.06400 0.14900 0.01700 
0.04800 0.05100 -0.13700 
0.08150 0.16550 0.09950 
0.01300 0.08150 -0.07950 
0.04350 0.11250 -0.12850 
0.06500 0.09700 -0.04450 
0.05800 0.10350 -0.00150 
0.01100 0.05900 -0.00600 
0.01850 0.10950 0.05700 
0.10600 0.06350 -0.02400 
-0.00900 0.14250 -0.10050 
0.02900 0.14350 0.02700 
0.12850 0.15400 0.00450 
0.09500 0.11050 -0.16150 
-0.00950 0.12100 -0.09150 
-0.00100 0.06250 -0.02250 
0.00850 0.07800 0.05100 
0.07450 0.08900 -0.10700 
0.07100 0.12600 -0.00650 
0.14450 0.06250 -0.14000 
0.08750 0.11050 -0.11500 
0.10650 0.06000 -0.09650 
0.09650 0.04300 -0.02200 
0.08200 0.00600 -0.00650 
0.02800 0.11200 0.02100 
0.05800 0.11550 -0.10650 
0.03550 0.03900 -0.03250 
0.09250 0.10700 -0.15250 
0.07550 0.09950 -0.02150 
0.09150 0.03450 -0.10800 
0.04300 0.12100 0.03050 
0.00300 0.05500 -0.02100 
0.00500 0.06750 -0.04950 
0.00100 0.08000 -0.05100 
-0.02750 0.07700 -0.09850 
0.04400 0.06250 -0.00250 
0.06400 0.07300 -0.12100 
0.00550 0.10200 -0.01950 
-0.04300 0.06850 -0.04650 
0.07850 0.09200 -0.09650 
0.02050 0.09050 -0.15600 
0.08000 0.12200 -0.11100 
0.00750 0.20500 -0.01650 
0.04300 0.05800 -0.12350 
0.03150 0.10650 0.00950 
-0.03950 0.14350 -0.03950 
0.06500 0.11400 0.03350 
0.06750 0.13150 -0.09100 
0.05050 0.07150 -0.01250 
-0.00750 0.10350 -0.04200 
0.01550 0.13000 0.06200 
0.02600 0.06550 -0.00850 
-0.06900 0.18400 -0.02250 
0.06250 0.12050 0.00200 
-0.00050 0.11150 -0.04600 
0.06350 0.08150 -0.05300 
-0.03100 -0.00100 -0.05700 
0.04450 0.09750 -0.04750 
0.05900 0.01000 0.06300 
0.02850 0.10800 -0.00000 
0.05500 0.11200 -0.07700 
0.07850 0.00950 -0.03300 
0.00100 -0.04200 -0.05350 
0.00550 0.07000 0.04000 
0.04300 0.12650 -0.01150 
0.08400 0.10550 -0.10250 
-0.01050 0.15850 0.00550 
0.05450 0.06400 0.06100 
0.00550 0.12300 -0.02300 
-0.14450 0.02400 -0.12750 
-0.01450 0.11400 0.04000 
0.01500 0.15050 -0.04950 
0.08400 0.09600 -0.07650 
0.01850 0.14000 -0.09000 
0.08050 0.09900 -0.07950 
0.03200 0.11650 -0.01750 
0.03300 0.00100 -0.00200 
-0.00650 0.04300 -0.10150 
0.07150 0.08450 -0.10900 
0.14800 0.11950 0.01850 
0.03550 0.20000 -0.04450 
0.03650 0.10700 0.04750 
0.03100 0.03300 0.00150 
0.01400 0.07700 -0.01350 
0.07200 0.13900 -0.13350 
0.05650 0.08650 -0.00750 
0.01450 0.11800 -0.07400 
0.09550 0.05100 -0.01100 
0.03500 0.02350 -0.03450 
0.00950 0.14250 0.00250 
-0.01800 0.11700 -0.02800 
0.03750 0.16100 0.06600 
0.15850 0.06400 -0.04150 
0.02850 0.11050 -0.03650 
0.05150 0.13850 -0.02500 
0.06800 0.06150 -0.00450 
-0.13150 -0.04950 -0.07650 
0.06100 0.04200 -0.01050 
0.02550 0.11000 -0.02300 
0.01500 0.04000 0.01050 
0.01750 0.07550 -0.13550 
0.04750 0.04900 -0.07950 
0.03700 0.19700 -0.01250 
0.00900 0.05250 -0.08850 
0.02950 0.02850 -0.02500 
0.11400 0.00700 -0.12550 
0.09100 0.05000 -0.12350 
0.02600 0.10350 0.01450 
0.00700 0.09950 -0.02850 
0.02850 0.15300 -0.09700 
0.03500 0.09300 -0.00800 
0.06450 0.06500 0.07400 
0.05400 0.10400 0.07600 
0.05350 0.08850 0.01500 
0.07450 0.07200 -0.11450 
-0.00100 0.05900 -0.08400 
0.04400 0.03300 0.01200 
-0.02650 0.05200 -0.07950 
-0.02900 0.12200 0.05700 
0.02550 0.04000 -0.03850 
-0.04050 0.09400 -0.10300 
0.12550 0.13400 -0.10300 
0.02100 0.13650 0.00150 
0.00350 0.13800 -0.01250 
0.07350 0.07000 -0.08450 
0.03850 0.07200 -0.01650 
0.12450 0.13200 0.08650 
-0.06650 0.09050 -0.10150 
0.12850 0.11150 -0.05200 
0.05100 0.08600 -0.04250 
-0.00050 0.05050 -0.03650 
0.02700 0.08000 0.00600 
-0.00700 0.12850 -0.04800 
0.04300 0.11900 -0.15550 
0.05950 0.09650 -0.14400 
0.03650 0.01600 0.01300 
0.02450 0.06450 -0.00400 
0.03350 0.05800 -0.07850 
0.07300 0.11400 0.03850 
-0.00600 0.03050 -0.07050 
0.04900 -0.03050 -0.00400 
0.00850 0.06800 -0.06400 
0.08300 0.13750 -0.07850 
0.03200 -0.00450 -0.01550 
0.00450 0.10100 -0.01750 
-0.00350 0.00550 -0.03700 
-0.02350 0.11900 0.00950 
-0.00250 0.04700 -0.02600 
0.07850 0.09050 0.05350 
0.02000 0.08100 -0.01800 
0.01400 0.13500 -0.03300 
0.00700 0.00850 -0.00650 
0.00900 0.02750 -0.03350 
0.02400 0.05300 -0.02300 
0.10250 0.07900 -0.00150 
0.09250 0.07400 -0.06250 
-0.05300 0.05250 0.00350 
0.01850 0.14550 -0.06900 
0.02650 0.05550 -0.11100 
0.01650 0.06700 -0.06300 
0.01050 0.14700 -0.03150 
0.11100 0.06350 -0.02650 
0.04750 0.04200 0.04300 
0.09500 0.09650 0.01900 
-0.00050 0.05200 -0.05000 
0.09250 0.17150 -0.03850 
0.00750 0.17000 0.00900 
0.04700 0.15600 0.04500 
0.05100 0.05300 -0.02350 
0.04050 0.06700 0.02000 
0.10800 0.12600 -0.01500 
0.01000 -0.03400 -0.01750 
-0.09600 0.05300 -0.01000 
0.00800 0.05800 -0.06550 
0.15500 0.06850 -0.02450 
0.01000 0.08150 -0.06300 
0.01400 0.05850 -0.02050 
0.09200 0.12650 0.02600 
-0.02800 0.07600 -0.09100 
-0.00350 0.10200 0.05400 
0.00700 0.02850 0.02600 
-0.12100 0.03700 -0.05050 
0.00550 -0.00100 -0.05600 
0.01800 0.10750 -0.04950 
0.07950 0.00500 0.00400 
-0.04300 0.07350 -0.01500 
-0.00150 0.05200 0.01650 
-0.02950 0.00150 -0.08600 
0.03550 0.04550 -0.07900 
0.07050 0.17750 0.00900 
0.02700 0.07750 0.00400 
-0.04600 0.01050 -0.02650 
-0.03900 0.00650 -0.00900 
0.02450 0.04900 0.02050 
-0.02800 0.00150 0.00600 
-0.04350 0.09150 -0.01200 
0.03250 0.01200 -0.03450 
0.00850 0.03400 -0.02700 
0.02750 0.02350 0.02250 
0.07450 0.11300 -0.11500 
0.02500 0.16650 -0.05700 
-0.04200 0.15150 -0.15750 
0.03150 0.09850 -0.08500 
0.07950 0.11200 -0.10500 
-0.04850 -0.00050 -0.01700 
0.07700 0.15950 0.01950 
0.01850 0.02800 0.04000 
0.02150 0.12550 0.00550 
-0.02450 0.08550 -0.03800 
0.10450 0.15500 0.02000 
0.05300 0.12450 0.06250 
0.00900 0.06950 0.02100 
-0.00400 0.12100 -0.02000 
-0.05950 0.06800 -0.06200 
0.10150 0.11950 -0.01150 
0.08650 0.16600 -0.09600 
0.08400 0.06200 -0.02300 
-0.11800 -0.06100 -0.12350 
0.13500 0.10200 -0.06300 
-0.03600 0.04150 -0.06200 
0.10300 0.11050 -0.07100 
0.04500 0.06850 -0.02000 
0.04450 0.10000 -0.08000 
0.02600 0.09350 -0.09450 
-0.00500 0.05900 -0.03900 
0.01150 0.01700 -0.01400 
0.09900 0.17700 -0.07150 
0.02250 0.11350 0.06700 
0.10150 0.12550 -0.01350 
0.02650 0.05250 0.00200 
0.01900 0.18400 -0.03900 
0.01800 0.04100 0.01800 
0.02350 0.06800 -0.05450 
-0.01700 0.05550 -0.07200 
0.11650 0.04500 -0.08800 
0.02150 0.11700 -0.07300 
0.08150 0.15650 0.02050 
0.04700 0.09950 -0.10250 
-0.02950 0.02800 -0.03650 