# vtk DataFile Version 2.0 
Xm, Ym, Zm, Uvecs, timestep 10079 
ASCII 
 
DATASET POLYDATA POINTS 527 float 
  8.841   1.240 -70.212 
  9.985   2.553 -71.912 
  2.487  -3.305 -74.110 
  9.230   1.801 -70.517 
  2.666   6.828 -70.183 
 -4.577  12.264 -73.010 
 -5.139  -0.923 -69.874 
 -7.699  -2.466 -71.124 
 -5.264  -1.837 -74.659 
  2.731   4.713 -67.939 
  6.158   5.404 -71.578 
  4.995  -1.880 -68.787 
  7.537   1.824 -68.182 
  5.649  -2.069 -71.655 
 -4.503   4.749 -73.327 
 14.915  -0.050 -71.618 
 -1.793   0.938 -70.051 
  0.450   6.215 -66.358 
 -2.454   5.881 -74.377 
  5.796   8.781 -71.203 
 -8.059  -7.382 -70.704 
 -2.540  -2.668 -73.918 
 -3.226   6.059 -69.666 
 -6.636   0.637 -66.979 
 -2.511   5.983 -67.036 
-10.105   3.449 -71.974 
 -9.566   3.173 -72.064 
  5.043   0.647 -67.532 
  4.399   4.101 -68.340 
 -7.752   4.684 -67.404 
 -2.843  -0.056 -69.332 
  4.580  12.849 -65.470 
 -9.959  -4.220 -69.987 
-11.581   2.277 -67.374 
 11.084  -2.718 -72.886 
 -0.046   0.128 -65.018 
 -4.130   2.574 -73.680 
 -3.306  12.894 -66.484 
  8.138  -4.984 -68.314 
  6.234  -0.258 -73.274 
 -5.623   5.232 -69.863 
 -1.973 -11.748 -70.809 
 -1.613  -7.938 -74.971 
 -8.989   7.054 -66.933 
  5.223 -11.561 -71.687 
  4.483   1.997 -68.152 
 -4.690  -6.826 -77.331 
 -0.703  -1.292 -70.892 
-14.313   8.922 -72.372 
 -1.999  -7.612 -68.654 
 -3.258  -0.946 -70.631 
 -1.498   4.569 -64.731 
-10.643  -3.048 -69.897 
-15.594   7.629 -74.447 
  8.015  10.708 -67.911 
  7.330   8.620 -73.497 
 -2.752  11.204 -71.364 
-10.999   1.556 -73.130 
 -9.364  -8.851 -66.893 
  5.890   4.909 -64.856 
 -0.032  12.108 -65.097 
-14.118   0.604 -69.433 
  5.982  10.905 -72.093 
-12.721  12.128 -73.198 
 -0.410   3.758 -63.889 
 -2.122  -7.393 -70.133 
  3.500  -1.344 -69.203 
 12.051  -2.015 -69.206 
 -7.633  -4.840 -67.742 
 10.256   5.030 -66.438 
 -6.773  -7.793 -70.321 
 -5.611  -8.233 -71.554 
 -2.254  -2.502 -70.246 
 12.307   4.352 -73.823 
 -2.343  -4.366 -67.590 
 -4.896  -8.904 -68.703 
 -7.300   5.449 -65.968 
  4.648 -12.115 -68.444 
 -8.361   0.978 -62.100 
  0.481   4.233 -77.329 
  3.599   4.527 -70.647 
 -1.964  10.508 -70.452 
-15.493   5.999 -70.683 
  1.650   1.738 -66.115 
-13.342  -6.083 -71.215 
 -7.207  -0.866 -64.224 
 13.602   4.398 -65.806 
  7.835   7.255 -72.824 
  2.865  12.304 -66.744 
 -5.096  -1.892 -67.782 
-10.067 -11.990 -67.945 
 -1.843   0.758 -68.494 
-10.805   7.178 -66.022 
  3.301   9.838 -73.085 
 -8.266   9.103 -64.232 
  5.671   7.048 -75.864 
  2.552   0.080 -68.882 
  0.738  -4.313 -64.605 
 -8.253  11.267 -70.105 
 -4.806   1.675 -61.972 
 -0.152  -6.085 -64.560 
 -7.100   2.402 -65.209 
 -7.729   8.159 -67.156 
 -9.729  10.378 -65.715 
 14.850   1.325 -71.767 
 -2.345  -0.414 -64.681 
 -4.001  10.021 -63.182 
  9.630  -3.502 -67.010 
 -4.828  -4.958 -69.737 
 -4.373  -2.710 -64.081 
 11.694  -6.010 -70.954 
  3.288   6.762 -65.653 
  1.963   4.463 -65.888 
  2.073   6.960 -61.749 
-13.840  10.755 -74.432 
  6.179   7.927 -66.591 
 -7.757  10.890 -70.965 
 -7.889   0.598 -66.007 
  2.527 -11.852 -68.780 
  1.268  -8.419 -64.655 
  6.877   0.865 -67.984 
  5.492 -10.876 -66.680 
-13.910  -1.103 -66.050 
  0.384  -5.098 -63.697 
 -7.079   6.527 -72.251 
 -8.475   2.979 -73.781 
 15.896   6.814 -68.442 
 -1.655 -11.454 -64.930 
  6.672   6.463 -66.528 
 -2.674   5.091 -63.672 
  4.992  -0.680 -73.939 
  9.949   3.785 -69.123 
 -1.920   1.076 -75.107 
 -9.379  11.938 -68.579 
 -5.776   0.362 -67.778 
  9.014   7.619 -68.039 
  8.414   7.830 -66.779 
  1.839  -5.380 -64.112 
  4.001   9.277 -66.857 
  5.300  -4.441 -66.676 
  1.992   1.914 -69.103 
 -6.178  -1.086 -62.287 
-10.610  -0.778 -75.862 
  9.459  -1.224 -71.240 
  2.802  -9.418 -63.077 
  4.297   0.782 -74.568 
  6.879  -7.405 -64.430 
-10.823   0.557 -63.466 
 -5.303  -9.224 -64.786 
-13.846   8.270 -74.647 
  5.955   8.303 -63.448 
-13.954  -0.198 -67.267 
  6.255  -6.439 -67.480 
  8.113  -8.411 -64.493 
 -3.897  -3.606 -61.599 
 12.090   6.751 -68.023 
  1.724  -9.042 -68.616 
  8.943  -0.871 -71.676 
  3.337  -3.269 -65.198 
 -1.536   9.445 -73.958 
  9.082  -7.847 -64.355 
  5.787   1.049 -65.532 
-15.620   2.239 -73.501 
 -0.917  -5.328 -63.984 
 -1.369  -8.939 -64.922 
  1.420   1.833 -63.653 
 -8.458   8.748 -66.590 
  9.677 -11.679 -68.411 
 -1.020  -3.801 -66.818 
  0.716  -3.450 -75.968 
 -0.770   2.679 -75.035 
 -3.375   0.336 -74.051 
-11.846  -7.176 -68.632 
 11.073  -3.566 -65.252 
  6.428   3.405 -74.740 
 -5.599   0.766 -64.416 
 10.004   4.747 -62.921 
 -0.017 -11.380 -73.200 
 -1.652   5.383 -69.346 
  5.976   1.312 -68.028 
 11.063  -9.441 -67.088 
  0.204 -10.672 -73.451 
 -6.720   0.791 -63.633 
  8.909  -3.296 -71.012 
 -1.561  -6.039 -68.771 
  3.120  10.840 -77.777 
 10.782  -5.803 -70.523 
 -3.579  -2.070 -66.315 
  4.266  -5.816 -73.332 
 10.633  -1.687 -65.287 
 -7.553  -3.385 -77.798 
-14.018  10.282 -67.697 
 17.920   9.075 -69.017 
-15.447  -1.341 -73.458 
 -2.111   0.959 -64.415 
 11.006  -2.106 -67.590 
 15.907   8.250 -64.921 
-12.064   5.181 -68.487 
  4.777   3.543 -63.569 
  9.343 -12.320 -66.362 
 10.093   6.218 -68.246 
 -5.110  -8.535 -70.999 
  8.424 -11.649 -69.096 
  7.943   9.994 -63.834 
  9.180 -11.983 -66.642 
  1.349  11.915 -73.823 
 14.704   2.486 -66.756 
 -4.047   3.268 -67.263 
 -3.544   7.159 -73.293 
 -4.869  -4.378 -66.597 
  6.733  -8.706 -69.139 
  1.615  -4.751 -70.929 
  8.242  10.811 -73.978 
 11.448   1.307 -63.403 
 18.020   3.739 -71.205 
 -7.468  -0.874 -61.482 
 -8.555  -6.008 -60.144 
  1.608  -1.402 -65.084 
 -3.474 -12.302 -67.083 
  0.528  -1.649 -73.116 
 15.138   0.204 -65.224 
-13.161  12.741 -66.738 
 -8.552  -0.512 -66.346 
 14.777   4.594 -62.725 
 -5.992  -1.136 -75.308 
 -4.819   3.546 -62.079 
  9.758   1.067 -70.856 
 10.717  10.558 -64.105 
-12.207  -1.314 -74.320 
 -9.289   4.090 -63.160 
 -4.940   9.436 -62.545 
 -4.863  -9.283 -71.692 
  8.647 -11.089 -62.643 
 15.797   9.594 -70.328 
-10.093  -4.845 -74.401 
 -4.785   3.077 -63.129 
-10.826   5.858 -67.369 
 -4.780   7.469 -69.952 
  8.085  -6.622 -70.576 
 11.549  10.935 -65.307 
-12.765   7.512 -66.554 
-11.132   3.556 -75.127 
 -9.338   3.511 -75.399 
-13.973  -3.232 -68.728 
  3.474  10.389 -73.175 
  4.528  -3.457 -70.254 
 -5.145   9.751 -64.011 
  0.141  -6.030 -63.034 
-11.779  10.964 -65.565 
  9.725  -2.484 -62.606 
  3.812  -8.220 -66.623 
  1.250  12.449 -70.276 
 -7.439  -8.390 -61.156 
  9.499  -7.184 -67.309 
-10.031  -3.827 -72.356 
-13.075   8.073 -70.823 
  8.352  10.015 -66.672 
 -5.809  -1.466 -62.181 
-11.564  -9.149 -72.023 
 -3.799  -7.694 -67.828 
 -4.434  -8.900 -60.165 
  2.471 -12.823 -69.606 
  1.025  11.163 -71.273 
 -8.564   7.662 -73.650 
 -2.002   8.720 -73.394 
 -8.995  -8.102 -75.721 
 11.453   0.915 -66.429 
  3.160  -1.867 -66.605 
  1.248   2.613 -71.155 
-13.562   6.108 -67.755 
  6.542  -9.791 -65.460 
  1.085  -4.768 -71.276 
 -4.123   5.080 -66.379 
 11.576   8.551 -66.364 
 15.538  11.354 -73.161 
 12.118   7.740 -64.320 
-10.382  -8.160 -74.410 
-12.694 -11.117 -75.245 
  0.216   5.164 -75.297 
 -9.704  -9.680 -62.749 
-13.273  -7.285 -72.492 
 12.397  10.728 -68.272 
 12.160   9.942 -66.456 
  8.630  -5.895 -65.594 
 -5.107   9.994 -69.829 
 10.011   3.984 -70.716 
-13.599 -12.346 -65.976 
 -0.794   2.193 -71.870 
 -1.993  12.306 -69.733 
 10.323  12.977 -64.192 
 -5.105  -0.310 -70.137 
 -9.186   6.332 -73.447 
-11.745  12.604 -66.057 
 -6.602  -7.479 -65.332 
  1.607   4.692 -74.389 
 -1.561  -4.063 -68.529 
  3.099   7.997 -64.246 
 -8.031   0.482 -72.228 
-12.444  -3.342 -65.006 
 -4.631  -4.783 -75.244 
-10.480  -8.131 -69.370 
 11.685  10.450 -70.627 
  4.197  -1.943 -68.886 
  1.692  -6.783 -66.719 
 14.932  10.091 -65.744 
-10.839   3.682 -58.849 
 -9.252  10.186 -75.005 
 15.987  -8.925 -70.951 
 -9.381  -2.399 -70.756 
 -7.532   6.199 -67.791 
 14.282  -4.021 -73.108 
 13.683   0.053 -59.010 
 -6.208  11.145 -69.409 
 -4.933  -3.692 -66.547 
 -2.867   3.910 -63.644 
  2.104 -11.468 -69.410 
-14.997  -6.588 -74.469 
  5.970   4.784 -71.629 
  4.736   2.985 -70.697 
 -1.512  -6.401 -77.184 
 -4.090   7.444 -71.358 
  6.796  -1.320 -72.272 
  2.115  -1.875 -72.778 
 -7.357   2.804 -71.352 
-13.871 -12.279 -70.784 
 -2.386  10.207 -67.953 
  4.968   9.134 -65.733 
 -0.401   6.820 -60.576 
 -6.112   1.033 -71.511 
 -0.303   4.106 -67.552 
 -5.823   6.819 -71.529 
 -0.248  11.150 -73.159 
-10.696   7.768 -68.936 
  4.435  10.032 -68.266 
 -4.267  12.821 -70.424 
 -1.826  12.534 -62.154 
  8.869   8.002 -70.275 
-11.961  10.318 -71.051 
 -0.198 -11.541 -70.842 
-12.134  -5.665 -63.537 
 -1.501  -3.425 -73.170 
  1.822   6.078 -70.694 
-11.265  11.316 -65.523 
  4.304   5.281 -67.869 
 14.079  -6.123 -67.053 
 -9.591   2.638 -68.265 
  7.031   8.797 -64.014 
 -6.982 -11.688 -65.522 
 -7.408 -11.332 -71.561 
  7.954  -1.086 -73.155 
 11.813  -0.266 -73.602 
 -2.931   6.941 -67.391 
  1.932  10.079 -69.061 
  8.050  -6.329 -63.267 
 13.217   3.048 -68.858 
 -6.595  11.779 -73.380 
  6.013  -8.016 -64.127 
-13.167 -11.968 -71.023 
  1.426   8.786 -67.064 
  0.282  -3.275 -60.840 
  5.010  -9.934 -61.124 
  7.096   0.042 -68.463 
  0.044   9.185 -73.595 
 -7.162   3.076 -66.251 
  5.404   0.117 -62.847 
 -7.075   6.035 -70.426 
 -4.437   1.526 -74.963 
 10.528   9.233 -67.524 
  4.989  -7.186 -67.722 
  2.212   7.967 -71.570 
  3.355  -3.162 -60.573 
 -1.470 -11.939 -70.716 
 -1.720   5.797 -71.926 
-15.579  -3.184 -72.336 
  2.089  -8.323 -61.734 
 -1.037  -2.909 -60.718 
 -7.854  -9.996 -63.921 
  9.709 -10.929 -65.035 
 -6.021   9.880 -64.016 
 -0.256  -9.118 -65.822 
  6.783 -11.276 -65.186 
-14.203  -8.858 -74.192 
 -3.589  -1.767 -61.728 
  6.948  -7.463 -66.912 
  0.457  -2.256 -62.701 
  8.460   7.295 -65.117 
 10.389  -7.714 -64.909 
  0.899  -8.445 -60.919 
 -9.087  -8.095 -67.804 
 16.351  -1.244 -66.829 
 -3.301  12.604 -66.434 
-12.157  -8.727 -71.490 
 11.023  -3.629 -62.335 
 -2.946 -12.691 -67.361 
-13.501  11.587 -65.747 
 -4.853  -7.670 -69.930 
 13.543   9.848 -63.549 
-11.986 -11.496 -61.906 
  5.151   8.376 -61.363 
-10.162   0.819 -73.531 
  1.156   9.817 -65.073 
 13.355  -7.226 -65.599 
 13.607  -4.182 -64.698 
 -2.811   5.901 -65.865 
 -6.119  -7.312 -60.299 
 -4.194  -8.655 -74.424 
  2.474 -12.192 -71.698 
 10.171   0.714 -62.415 
  3.324  -9.875 -62.785 
 -6.545   9.352 -75.058 
-15.700   8.790 -76.373 
 14.756   7.176 -74.245 
  3.373 -10.579 -74.462 
 -4.194  -3.158 -62.748 
 16.743  -6.270 -75.980 
 16.430  -4.936 -73.916 
 -5.220  -0.720 -75.327 
-13.890   5.072 -71.362 
  8.941   0.023 -61.207 
 15.555  -5.236 -66.511 
-13.695  -3.627 -65.180 
 14.259  -1.238 -72.231 
 18.377  10.599 -71.999 
  0.819  13.463 -62.065 
 -5.168  -5.896 -70.445 
-12.894   0.384 -70.800 
 -1.423  -0.247 -58.791 
  6.030   1.313 -66.611 
 12.804  -2.593 -62.274 
  8.620  -8.326 -65.563 
-10.786  -4.451 -65.813 
 17.063  10.894 -67.808 
 14.657   3.538 -73.607 
  5.357   6.364 -61.352 
 -7.409  -3.622 -68.247 
 -4.836 -10.111 -69.033 
-10.096  10.646 -76.304 
 16.177  -6.964 -63.111 
 -1.443  -2.656 -60.765 
 11.465   1.992 -67.416 
-12.604   2.702 -77.495 
 -5.856 -12.303 -66.107 
  1.018   5.893 -73.019 
  3.648 -10.658 -77.111 
  6.481 -10.547 -66.580 
-13.305   6.287 -69.545 
 -6.380  -8.111 -74.935 
 -8.845   6.434 -58.434 
  8.135  -4.590 -74.868 
-14.401  -0.429 -66.904 
 13.607   5.148 -74.844 
 17.228  -3.146 -66.735 
-14.098 -10.140 -69.037 
 -2.854  -0.768 -64.511 
 16.607 -11.528 -68.272 
 12.704  -5.257 -68.021 
 12.778  -4.354 -65.901 
 15.694  -2.612 -73.568 
 -0.890  -1.160 -70.846 
 -6.986   6.835 -61.776 
 14.582  -3.790 -74.830 
-13.995  -9.622 -74.585 
 15.057  10.201 -73.716 
  1.643 -10.735 -72.660 
 10.259   9.764 -64.033 
-14.509   1.642 -67.636 
  6.004  -1.402 -76.407 
 10.375  -7.560 -75.560 
 -1.228   3.537 -69.452 
-13.471   6.706 -64.509 
  8.518   9.346 -71.598 
  1.640   1.005 -77.291 
  1.589 -11.845 -68.145 
-12.208   0.997 -72.284 
  1.053  -8.869 -64.645 
 -2.998   6.112 -71.922 
 11.845   6.011 -66.112 
  0.706 -11.284 -64.355 
-11.909  12.080 -66.963 
 12.634   9.079 -72.618 
  1.934   3.282 -60.499 
 -7.740  -1.977 -60.148 
 -8.761  10.703 -63.931 
-10.980   0.484 -77.309 
 -7.021  -9.973 -67.716 
-15.647  -2.053 -72.944 
 14.410   4.309 -64.828 
  9.387   2.636 -61.663 
 -5.271   3.615 -65.808 
 -2.716  -1.720 -68.597 
 -4.280  -1.371 -67.175 
 -4.237  11.368 -72.404 
 -8.979  11.762 -63.251 
  2.752  -5.070 -66.811 
  1.294  -4.159 -62.523 
  7.109  -7.840 -65.529 
  1.835  -1.781 -65.945 
  3.510 -10.963 -67.743 
 -6.813  -2.837 -67.975 
-15.415  -6.676 -75.561 
 12.894   6.478 -64.191 
-11.807  -4.466 -75.466 
 -3.395  -7.170 -74.624 
  6.728 -10.320 -67.423 
 14.185  10.851 -69.334 
 -5.292  -4.340 -65.959 
 -8.313   6.543 -72.214 
  2.065 -10.567 -67.492 
 -6.127  10.223 -70.052 
  0.497 -10.951 -69.608 
  8.599 -10.756 -60.499 
 10.581   6.950 -76.879 
 -2.965  -1.398 -63.424 
 12.458  -0.024 -71.647 
 -3.593  -7.913 -62.110 
  6.571  10.895 -74.073 
  3.777  11.281 -60.343 
-14.021  -7.710 -73.007 
 -2.530   4.322 -73.174 
 13.490 -11.913 -64.956 
 -5.766   7.200 -68.926 
 -6.040   2.336 -62.233 
 -5.939  -4.576 -72.546 
 -7.801   9.814 -63.514 
 13.730 -11.962 -64.031 
-11.762   4.683 -62.085 
 -2.156  10.418 -75.103 

 VERTICES 527 1054 
1 0 
1 1 
1 2 
1 3 
1 4 
1 5 
1 6 
1 7 
1 8 
1 9 
1 10 
1 11 
1 12 
1 13 
1 14 
1 15 
1 16 
1 17 
1 18 
1 19 
1 20 
1 21 
1 22 
1 23 
1 24 
1 25 
1 26 
1 27 
1 28 
1 29 
1 30 
1 31 
1 32 
1 33 
1 34 
1 35 
1 36 
1 37 
1 38 
1 39 
1 40 
1 41 
1 42 
1 43 
1 44 
1 45 
1 46 
1 47 
1 48 
1 49 
1 50 
1 51 
1 52 
1 53 
1 54 
1 55 
1 56 
1 57 
1 58 
1 59 
1 60 
1 61 
1 62 
1 63 
1 64 
1 65 
1 66 
1 67 
1 68 
1 69 
1 70 
1 71 
1 72 
1 73 
1 74 
1 75 
1 76 
1 77 
1 78 
1 79 
1 80 
1 81 
1 82 
1 83 
1 84 
1 85 
1 86 
1 87 
1 88 
1 89 
1 90 
1 91 
1 92 
1 93 
1 94 
1 95 
1 96 
1 97 
1 98 
1 99 
1 100 
1 101 
1 102 
1 103 
1 104 
1 105 
1 106 
1 107 
1 108 
1 109 
1 110 
1 111 
1 112 
1 113 
1 114 
1 115 
1 116 
1 117 
1 118 
1 119 
1 120 
1 121 
1 122 
1 123 
1 124 
1 125 
1 126 
1 127 
1 128 
1 129 
1 130 
1 131 
1 132 
1 133 
1 134 
1 135 
1 136 
1 137 
1 138 
1 139 
1 140 
1 141 
1 142 
1 143 
1 144 
1 145 
1 146 
1 147 
1 148 
1 149 
1 150 
1 151 
1 152 
1 153 
1 154 
1 155 
1 156 
1 157 
1 158 
1 159 
1 160 
1 161 
1 162 
1 163 
1 164 
1 165 
1 166 
1 167 
1 168 
1 169 
1 170 
1 171 
1 172 
1 173 
1 174 
1 175 
1 176 
1 177 
1 178 
1 179 
1 180 
1 181 
1 182 
1 183 
1 184 
1 185 
1 186 
1 187 
1 188 
1 189 
1 190 
1 191 
1 192 
1 193 
1 194 
1 195 
1 196 
1 197 
1 198 
1 199 
1 200 
1 201 
1 202 
1 203 
1 204 
1 205 
1 206 
1 207 
1 208 
1 209 
1 210 
1 211 
1 212 
1 213 
1 214 
1 215 
1 216 
1 217 
1 218 
1 219 
1 220 
1 221 
1 222 
1 223 
1 224 
1 225 
1 226 
1 227 
1 228 
1 229 
1 230 
1 231 
1 232 
1 233 
1 234 
1 235 
1 236 
1 237 
1 238 
1 239 
1 240 
1 241 
1 242 
1 243 
1 244 
1 245 
1 246 
1 247 
1 248 
1 249 
1 250 
1 251 
1 252 
1 253 
1 254 
1 255 
1 256 
1 257 
1 258 
1 259 
1 260 
1 261 
1 262 
1 263 
1 264 
1 265 
1 266 
1 267 
1 268 
1 269 
1 270 
1 271 
1 272 
1 273 
1 274 
1 275 
1 276 
1 277 
1 278 
1 279 
1 280 
1 281 
1 282 
1 283 
1 284 
1 285 
1 286 
1 287 
1 288 
1 289 
1 290 
1 291 
1 292 
1 293 
1 294 
1 295 
1 296 
1 297 
1 298 
1 299 
1 300 
1 301 
1 302 
1 303 
1 304 
1 305 
1 306 
1 307 
1 308 
1 309 
1 310 
1 311 
1 312 
1 313 
1 314 
1 315 
1 316 
1 317 
1 318 
1 319 
1 320 
1 321 
1 322 
1 323 
1 324 
1 325 
1 326 
1 327 
1 328 
1 329 
1 330 
1 331 
1 332 
1 333 
1 334 
1 335 
1 336 
1 337 
1 338 
1 339 
1 340 
1 341 
1 342 
1 343 
1 344 
1 345 
1 346 
1 347 
1 348 
1 349 
1 350 
1 351 
1 352 
1 353 
1 354 
1 355 
1 356 
1 357 
1 358 
1 359 
1 360 
1 361 
1 362 
1 363 
1 364 
1 365 
1 366 
1 367 
1 368 
1 369 
1 370 
1 371 
1 372 
1 373 
1 374 
1 375 
1 376 
1 377 
1 378 
1 379 
1 380 
1 381 
1 382 
1 383 
1 384 
1 385 
1 386 
1 387 
1 388 
1 389 
1 390 
1 391 
1 392 
1 393 
1 394 
1 395 
1 396 
1 397 
1 398 
1 399 
1 400 
1 401 
1 402 
1 403 
1 404 
1 405 
1 406 
1 407 
1 408 
1 409 
1 410 
1 411 
1 412 
1 413 
1 414 
1 415 
1 416 
1 417 
1 418 
1 419 
1 420 
1 421 
1 422 
1 423 
1 424 
1 425 
1 426 
1 427 
1 428 
1 429 
1 430 
1 431 
1 432 
1 433 
1 434 
1 435 
1 436 
1 437 
1 438 
1 439 
1 440 
1 441 
1 442 
1 443 
1 444 
1 445 
1 446 
1 447 
1 448 
1 449 
1 450 
1 451 
1 452 
1 453 
1 454 
1 455 
1 456 
1 457 
1 458 
1 459 
1 460 
1 461 
1 462 
1 463 
1 464 
1 465 
1 466 
1 467 
1 468 
1 469 
1 470 
1 471 
1 472 
1 473 
1 474 
1 475 
1 476 
1 477 
1 478 
1 479 
1 480 
1 481 
1 482 
1 483 
1 484 
1 485 
1 486 
1 487 
1 488 
1 489 
1 490 
1 491 
1 492 
1 493 
1 494 
1 495 
1 496 
1 497 
1 498 
1 499 
1 500 
1 501 
1 502 
1 503 
1 504 
1 505 
1 506 
1 507 
1 508 
1 509 
1 510 
1 511 
1 512 
1 513 
1 514 
1 515 
1 516 
1 517 
1 518 
1 519 
1 520 
1 521 
1 522 
1 523 
1 524 
1 525 
1 526 
POINT_DATA 527 
SCALARS MeanU double 1 
LOOKUP_TABLE default
0.17642 
0.14332 
0.11434 
0.15854 
0.15714 
0.11993 
0.13685 
0.09861 
0.09938 
0.16180 
0.06949 
0.17876 
0.15672 
0.16577 
0.06939 
0.03869 
0.14944 
0.18440 
0.10090 
0.10273 
0.16448 
0.08552 
0.11055 
0.17183 
0.11347 
0.06545 
0.07362 
0.16777 
0.15071 
0.15542 
0.08562 
0.16668 
0.10958 
0.14302 
0.03585 
0.17001 
0.09142 
0.13994 
0.12582 
0.11282 
0.13824 
0.10381 
0.10558 
0.18246 
0.21257 
0.14609 
0.03815 
0.12967 
0.05096 
0.17912 
0.11548 
0.19611 
0.08755 
0.05434 
0.06593 
0.11794 
0.12906 
0.10561 
0.20328 
0.22168 
0.11932 
0.12159 
0.12924 
0.03345 
0.21310 
0.18233 
0.12838 
0.10791 
0.08663 
0.11574 
0.14165 
0.17103 
0.12348 
0.11026 
0.13885 
0.11373 
0.21566 
0.17485 
0.12928 
0.08789 
0.13326 
0.11048 
0.02674 
0.20844 
0.17716 
0.14950 
0.13409 
0.08162 
0.14946 
0.12339 
0.15387 
0.11776 
0.13611 
0.10379 
0.11972 
0.06223 
0.19994 
0.19009 
0.08545 
0.11513 
0.14660 
0.13396 
0.11083 
0.06264 
0.06938 
0.13817 
0.17229 
0.06399 
0.15652 
0.15381 
0.05919 
0.17986 
0.16042 
0.15939 
0.05806 
0.13953 
0.10502 
0.09742 
0.19781 
0.17838 
0.19370 
0.17032 
0.13121 
0.11716 
0.08593 
0.08544 
0.08417 
0.16015 
0.11258 
0.18367 
0.12776 
0.16569 
0.07473 
0.09604 
0.15441 
0.10112 
0.10100 
0.11029 
0.12627 
0.19148 
0.21559 
0.07573 
0.03049 
0.11060 
0.16894 
0.13725 
0.04707 
0.13997 
0.13287 
0.05324 
0.18490 
0.18600 
0.15656 
0.09591 
0.11498 
0.03808 
0.16810 
0.12813 
0.19623 
0.10452 
0.09202 
0.14251 
0.16532 
0.14229 
0.10452 
0.16075 
0.09899 
0.10426 
0.15480 
0.04058 
0.09768 
0.10506 
0.17436 
0.06795 
0.17305 
0.13473 
0.19654 
0.14015 
0.09468 
0.19002 
0.13460 
0.10728 
0.14884 
0.11717 
0.16231 
0.13580 
0.05930 
0.14726 
0.11522 
0.21177 
0.04743 
0.05324 
0.09526 
0.21365 
0.12423 
0.05746 
0.13282 
0.10488 
0.19911 
0.12063 
0.11175 
0.15779 
0.10763 
0.17597 
0.13076 
0.10842 
0.08474 
0.16387 
0.06430 
0.11709 
0.11753 
0.14089 
0.12140 
0.14307 
0.04866 
0.06313 
0.14674 
0.19575 
0.14847 
0.08354 
0.07227 
0.03326 
0.11794 
0.11316 
0.07422 
0.13894 
0.21170 
0.12823 
0.05779 
0.16980 
0.12305 
0.13233 
0.11444 
0.08746 
0.08954 
0.13060 
0.22266 
0.08734 
0.28087 
0.09747 
0.05273 
0.09180 
0.05818 
0.12413 
0.14030 
0.18195 
0.13744 
0.12385 
0.04521 
0.18306 
0.15896 
0.10573 
0.19968 
0.17537 
0.12933 
0.10883 
0.07771 
0.04505 
0.12495 
0.17608 
0.14028 
0.18009 
0.10070 
0.06349 
0.07529 
0.03973 
0.13296 
0.17937 
0.12495 
0.03234 
0.10888 
0.15400 
0.13375 
0.06818 
0.09496 
0.19061 
0.09915 
0.05288 
0.06642 
0.07911 
0.09671 
0.05964 
0.08011 
0.04618 
0.05373 
0.14228 
0.08297 
0.14419 
0.13368 
0.16456 
0.14073 
0.05038 
0.04788 
0.12105 
0.14502 
0.14699 
0.14446 
0.07364 
0.12445 
0.01458 
0.20149 
0.09132 
0.17290 
0.20633 
0.05093 
0.07853 
0.09975 
0.05278 
0.09897 
0.10585 
0.05720 
0.16728 
0.09305 
0.12316 
0.16096 
0.13987 
0.06209 
0.12581 
0.18390 
0.09683 
0.05426 
0.11940 
0.11228 
0.05756 
0.15613 
0.12510 
0.15127 
0.19056 
0.06135 
0.14731 
0.05462 
0.08360 
0.06974 
0.12030 
0.14174 
0.08647 
0.08061 
0.07253 
0.11153 
0.15422 
0.09956 
0.18105 
0.05655 
0.14488 
0.11297 
0.13719 
0.15057 
0.10771 
0.10335 
0.09781 
0.04246 
0.15017 
0.12591 
0.09494 
0.08590 
0.11479 
0.11021 
0.14991 
0.14566 
0.08198 
0.14967 
0.18589 
0.09109 
0.18134 
0.17495 
0.14784 
0.07818 
0.08093 
0.20758 
0.07934 
0.13601 
0.11126 
0.11103 
0.09795 
0.19677 
0.12484 
0.17437 
0.14371 
0.10857 
0.10714 
0.16562 
0.17510 
0.13279 
0.16546 
0.12947 
0.16392 
0.10286 
0.21982 
0.12549 
0.08466 
0.16495 
0.14720 
0.15771 
0.18157 
0.06509 
0.16756 
0.14732 
0.10626 
0.17315 
0.09595 
0.15973 
0.11320 
0.15022 
0.12338 
0.14115 
0.16711 
0.16070 
0.19628 
0.18684 
0.05176 
0.03897 
0.12205 
0.09467 
0.08958 
0.07009 
0.10484 
0.08435 
0.02639 
0.18731 
0.09068 
0.13069 
0.06725 
0.06301 
0.16175 
0.18091 
0.04824 
0.18131 
0.15069 
0.11741 
0.09942 
0.15349 
0.16310 
0.10320 
0.16353 
0.08211 
0.13566 
0.12940 
0.21613 
0.13675 
0.10426 
0.09251 
0.14806 
0.08593 
0.09737 
0.21059 
0.03816 
0.04848 
0.11910 
0.08846 
0.16371 
0.05995 
0.06568 
0.13874 
0.13684 
0.08663 
0.06982 
0.07560 
0.06693 
0.16709 
0.12390 
0.14215 
0.14939 
0.10644 
0.16588 
0.11971 
0.22053 
0.09264 
0.09403 
0.11886 
0.14316 
0.13204 
0.13610 
0.15689 
0.08221 
0.15259 
0.09236 
0.10314 
0.13768 
0.06133 
0.10464 
0.23033 
0.08818 
0.13728 
0.09473 
0.13081 
0.15591 
0.11501 
0.26511 
0.10828 
0.10393 
0.13962 
0.11298 
0.18863 
0.21765 
0.14958 
0.04979 
0.17398 
0.15504 
0.08924 
0.17271 
0.19269 
0.03579 
0.10749 
0.09558 
0.08768 
0.14691 
0.08323 
0.18265 
0.13142 
0.16971 
0.08982 
0.10959 
0.11065 
0.09596 
0.08442 
0.15215 
0.21298 
0.11943 
0.13284 
0.15141 
0.09057 
0.13497 
0.16058 
0.12111 
0.19563 
0.15329 
0.07604 

 VECTORS Umean float 
0.07150 0.13350 -0.09050 
0.05700 0.07050 -0.11100 
-0.03400 0.10750 0.01900 
0.06850 0.11950 -0.07850 
0.05300 0.14650 -0.02050 
-0.07900 0.07850 -0.04450 
0.00250 0.13350 -0.03000 
0.03300 0.07800 0.05050 
0.04950 0.08200 0.02650 
-0.02450 0.15700 -0.03050 
-0.00400 0.06700 -0.01800 
0.04550 0.15600 -0.07450 
0.02600 0.11950 -0.09800 
0.03850 0.12150 -0.10600 
0.04800 0.04900 0.01050 
0.02750 0.00950 -0.02550 
0.03050 0.12900 0.06900 
0.02750 0.18150 -0.01750 
0.00450 0.06000 -0.08100 
-0.01950 0.05350 -0.08550 
0.02450 0.15850 -0.03650 
0.03600 0.07750 -0.00350 
0.07250 0.08200 -0.01550 
0.05600 0.16200 0.01200 
0.02000 0.10350 0.04200 
0.05450 0.02800 -0.02300 
0.06950 0.02050 -0.01300 
0.02150 0.12700 -0.10750 
0.02550 0.14650 -0.02450 
0.10550 0.11400 0.00550 
0.04050 0.07100 0.02550 
0.01950 0.16050 -0.04050 
0.00950 0.08250 -0.07150 
0.03550 0.13850 0.00350 
-0.01250 0.02300 -0.02450 
0.06000 0.14450 -0.06650 
0.04950 0.07250 -0.02550 
-0.02950 0.13400 -0.02750 
0.02200 0.05600 -0.11050 
-0.00100 0.10450 -0.04250 
0.11700 0.07350 -0.00450 
0.01000 0.07600 -0.07000 
0.08050 0.01050 -0.06750 
0.13000 0.12800 0.00300 
0.15550 0.06200 -0.13100 
0.02850 0.13500 -0.04800 
0.02500 0.01800 -0.02250 
0.04550 0.10350 0.06350 
0.01950 0.04350 -0.01800 
0.08500 0.11850 -0.10400 
0.05700 0.09450 -0.03400 
0.07550 0.16450 0.07550 
0.00600 0.06300 0.06050 
0.01400 0.05100 0.01250 
-0.06050 0.02550 -0.00600 
-0.05300 0.07500 -0.07400 
-0.06200 0.10550 -0.04100 
0.07100 0.02800 -0.07300 
-0.04250 0.18450 -0.07400 
0.18550 0.12100 0.00950 
0.01900 0.09400 -0.07100 
0.00300 0.10600 -0.05950 
-0.10850 0.03100 -0.06300 
0.02150 -0.00750 -0.02450 
0.08100 0.19350 0.03750 
0.09850 0.11550 -0.10100 
-0.00050 0.11100 -0.06450 
0.04000 0.09850 0.01850 
0.07600 0.04150 0.00250 
0.03650 0.08250 -0.07250 
-0.00150 0.13750 -0.03400 
0.03200 0.15250 0.07050 
-0.00800 0.10000 0.07200 
0.00200 0.09850 -0.04950 
0.07800 0.11200 -0.02550 
-0.01900 0.11200 0.00550 
0.14050 0.15100 0.06300 
0.12550 0.01350 -0.12100 
-0.04800 0.09250 -0.07650 
0.00750 0.02300 -0.08450 
-0.01250 0.13100 -0.02100 
-0.03950 0.08600 -0.05700 
0.02000 0.00300 0.01750 
0.13950 0.14400 0.05700 
0.09300 0.11750 -0.09450 
0.01950 0.09100 -0.11700 
0.10550 0.07500 -0.03500 
-0.03550 0.00850 -0.07300 
-0.01150 0.14900 0.00200 
0.04350 0.10850 -0.03950 
-0.02000 0.15250 0.00450 
0.04650 0.10350 0.03150 
0.05650 0.12050 0.02850 
-0.05600 0.07550 -0.04400 
0.01300 0.11900 -0.00150 
-0.03650 -0.00950 -0.04950 
0.05800 0.18950 -0.02650 
0.10150 0.14950 -0.05900 
0.01250 0.05800 -0.06150 
0.03600 0.09700 0.05050 
0.08100 0.10050 -0.06950 
0.02800 0.13050 0.01150 
0.09350 0.05950 0.00100 
-0.00150 0.05550 -0.02900 
0.03800 0.02950 -0.05000 
0.09200 0.10250 -0.01100 
0.01900 0.12550 -0.11650 
0.03600 0.04550 -0.02700 
0.10550 0.11500 -0.01200 
0.00250 0.12850 -0.08450 
0.03800 0.04300 0.01450 
0.06250 0.14900 -0.07900 
0.04150 0.14750 0.04750 
0.09150 0.13050 -0.00150 
0.00850 0.03750 -0.04350 
0.05000 0.12700 -0.02900 
0.02450 0.07750 -0.06650 
0.01700 0.08850 0.03700 
0.12550 0.08050 -0.13000 
0.03700 0.10550 -0.13900 
0.00800 0.13150 -0.14200 
0.07850 0.12600 -0.08350 
-0.00450 0.13100 0.00600 
0.06100 0.05800 -0.08150 
0.07350 -0.00100 -0.04450 
0.03700 0.04500 -0.06250 
0.00400 0.07500 -0.03800 
0.07500 0.08450 -0.11350 
0.02450 0.08300 -0.07200 
0.07400 0.13550 0.09950 
-0.04300 0.10800 -0.05300 
0.08300 0.09200 -0.11000 
0.04950 0.05350 -0.01650 
0.05300 0.04150 -0.06850 
0.05700 0.14300 0.01200 
0.05100 0.08450 -0.02200 
0.02700 0.09100 -0.03450 
0.04500 0.05700 -0.08300 
0.01200 0.11950 -0.03900 
0.06900 0.09850 -0.14900 
0.01200 0.20900 -0.05150 
0.00250 0.05500 -0.05200 
0.02700 0.01050 0.00950 
-0.00300 0.10900 0.01850 
0.01700 0.09450 -0.13900 
-0.04000 0.11350 -0.06600 
0.01600 0.02950 -0.03300 
-0.04600 0.07900 -0.10600 
0.07350 0.07150 -0.08450 
-0.00300 0.05300 0.00400 
0.03800 0.17900 -0.02650 
0.04550 0.17800 -0.02900 
0.10250 0.06000 -0.10200 
0.01200 0.09500 -0.00550 
0.04900 0.05300 -0.08950 
0.01300 0.03250 0.01500 
0.05650 0.07000 -0.14200 
-0.00400 0.12450 -0.03000 
0.10350 0.13450 -0.09850 
-0.05650 0.04750 -0.07400 
-0.00550 0.09100 0.01250 
0.06300 0.11700 -0.05150 
-0.02150 0.09150 -0.13600 
0.07950 0.11800 0.00150 
0.05250 0.07750 -0.04650 
0.06200 0.14750 -0.01550 
0.05400 0.08150 -0.01550 
0.07650 0.05300 0.04700 
0.04650 0.13000 -0.07000 
0.01350 0.03650 0.01150 
0.03650 0.08600 -0.02850 
0.00150 0.09650 -0.04150 
0.05150 0.14500 -0.08200 
0.01950 0.06500 0.00350 
0.06350 0.05300 -0.15200 
0.07350 0.06950 0.08900 
0.10400 0.16100 -0.04350 
0.06300 0.12500 0.00700 
0.03350 0.08450 0.02650 
-0.00850 0.15400 -0.11100 
0.09650 0.09300 0.01250 
0.05200 0.09300 0.01250 
0.00300 0.12000 0.08800 
0.08950 0.06650 -0.03600 
0.06900 0.13850 -0.04900 
-0.06400 0.04500 -0.11100 
0.05800 0.01050 0.00650 
0.05150 0.13650 -0.02000 
-0.01400 0.11050 0.02950 
0.04600 0.15950 -0.13150 
-0.03500 0.03100 0.00800 
0.03650 0.03850 0.00450 
0.02650 0.09150 -0.00050 
0.12700 0.13750 -0.10300 
0.08950 0.07550 0.04150 
0.02650 0.04550 -0.02300 
0.10600 0.07650 0.02350 
0.09200 0.04400 -0.02450 
0.09650 0.16350 -0.06000 
0.06100 0.09950 -0.03050 
0.08800 0.06800 -0.01100 
0.01350 0.13650 0.07800 
0.05650 0.05600 0.07250 
0.06450 0.11800 0.11350 
0.08700 0.09150 0.03400 
-0.08850 0.04250 -0.04600 
0.00950 0.08100 0.02300 
0.07150 0.12450 0.07900 
0.01800 0.06000 0.01450 
0.08000 0.08300 -0.02050 
0.07000 0.06550 0.06800 
0.02350 0.07250 -0.11850 
-0.05500 0.01250 -0.10750 
0.03600 0.13550 -0.02850 
0.01250 0.04650 -0.00700 
0.00500 0.04500 -0.04400 
0.02150 0.13350 -0.05700 
0.13700 0.13950 0.00950 
0.10650 0.05750 -0.08600 
0.01150 0.07450 0.03600 
0.03400 0.05800 0.02650 
0.02900 0.01600 0.00300 
0.05450 0.10450 0.00450 
0.04200 0.10500 0.00400 
0.00400 0.07350 -0.00950 
0.01450 0.13500 0.02950 
0.11850 0.14650 -0.09650 
-0.02550 0.08050 0.09650 
-0.00350 0.03200 -0.04800 
-0.02000 0.16250 0.04500 
-0.00050 0.10600 -0.06250 
0.01850 0.12800 0.02800 
0.00200 0.11300 -0.01800 
0.00350 0.05950 -0.06400 
-0.03450 0.08250 -0.00450 
0.01550 0.08550 0.09750 
0.12950 0.17350 0.05200 
0.02600 0.08300 0.00800 
0.18200 0.07850 -0.19900 
-0.07350 0.05850 -0.02600 
0.01300 0.04900 0.01450 
0.03500 0.06100 -0.05900 
0.05400 0.02050 -0.00700 
-0.00550 0.12400 0.00100 
-0.06800 0.08450 -0.08900 
0.08800 0.15650 -0.02950 
0.03200 0.13200 -0.02100 
0.06500 0.05650 -0.08900 
0.03650 0.01350 -0.02300 
0.11000 0.11000 -0.09650 
0.07050 0.10750 -0.09350 
-0.03600 0.09900 -0.00900 
0.12100 0.08450 -0.13450 
0.08850 0.11050 0.10350 
0.00050 0.12800 0.01850 
0.08200 0.03200 0.06400 
0.02250 0.07150 -0.02050 
0.02850 0.03150 0.01500 
0.06750 0.09950 -0.03400 
0.10100 0.12350 -0.07450 
0.04350 0.12500 0.04650 
0.11350 0.04750 -0.13150 
-0.00400 0.09650 -0.02850 
0.00300 0.06150 -0.01550 
-0.06050 0.02600 -0.03650 
0.01800 0.01150 -0.03350 
0.04000 0.11250 -0.05850 
0.10650 0.09850 -0.10550 
-0.01150 0.11600 0.04500 
0.02200 0.02100 0.01100 
0.08000 0.07050 -0.02200 
0.03200 0.11850 -0.09300 
0.03150 0.12900 0.01600 
-0.00450 0.06600 -0.01650 
-0.04400 0.05900 -0.06000 
0.09250 0.15850 -0.05150 
0.02400 0.07750 -0.05700 
-0.03600 -0.01550 -0.03550 
0.02150 0.06050 -0.01700 
0.04850 0.00050 -0.06250 
0.05850 0.07050 -0.03100 
-0.05150 -0.00800 -0.02900 
-0.03250 0.06900 -0.02450 
0.02750 0.02950 -0.02250 
0.02600 0.03850 -0.02700 
0.11700 0.05700 -0.05750 
-0.01900 0.01900 -0.07850 
0.08100 0.11800 0.01750 
-0.04650 0.09850 -0.07750 
0.01150 0.12450 -0.10700 
-0.00000 0.13750 -0.03000 
0.02600 0.01950 0.03850 
0.02750 0.03600 -0.01550 
0.10700 0.05350 -0.01850 
0.07200 0.10750 -0.06550 
0.06950 0.12950 0.00250 
0.07950 0.11800 -0.02500 
0.06300 -0.03150 0.02150 
0.03900 0.09050 -0.07600 
-0.01000 0.00750 -0.00750 
0.06900 0.16600 -0.09100 
0.01750 0.04750 -0.07600 
0.04400 0.14600 -0.08150 
0.08850 0.10500 -0.15400 
-0.03150 0.03900 0.00900 
0.00250 0.04400 0.06500 
-0.06500 0.07500 -0.01000 
0.01900 0.04850 0.00850 
-0.01550 0.09500 0.02300 
0.06400 0.07600 -0.03650 
0.03700 0.02050 -0.03850 
0.07450 0.09350 -0.11700 
0.04300 0.07350 -0.03750 
0.08100 0.09200 0.01200 
0.05950 0.10500 0.10650 
0.10450 0.02850 -0.08850 
0.00850 0.01900 -0.05850 
0.00850 0.08750 -0.09000 
0.06050 0.16800 -0.04400 