# vtk DataFile Version 2.0 
Xm, Ym, Zm, Uvecs, timestep 10110 
ASCII 
 
DATASET POLYDATA POINTS 530 float 
 -2.542  10.340 -71.816 
 -6.175   5.787 -72.570 
 -1.559   2.807 -70.219 
  5.760   9.823 -72.320 
  8.720   1.271 -69.307 
 -5.540   2.122 -70.761 
 -7.805   1.963 -70.612 
 -9.457   0.794 -72.265 
  0.070   6.771 -69.347 
 -3.460   5.021 -68.405 
 -0.783  10.613 -70.320 
-10.503   6.184 -74.260 
 -5.584   0.027 -73.222 
  3.740  -5.005 -71.251 
  4.739  -3.697 -73.591 
-11.116   4.110 -70.017 
  6.385   2.628 -65.895 
  1.667   6.059 -71.970 
  5.630  -1.004 -71.992 
 -1.810   0.308 -71.333 
 -8.549  -0.498 -74.853 
  8.314  -2.672 -67.933 
  0.853   8.756 -70.112 
 10.408  -1.769 -68.151 
 -1.058   9.882 -66.533 
 -1.903   7.886 -66.877 
  7.406   3.591 -67.924 
  1.518  10.552 -66.495 
  2.118   3.438 -69.251 
 -9.300   1.850 -68.066 
  8.358  -0.918 -66.400 
  4.906   0.036 -69.942 
  4.874   3.029 -71.143 
  4.123   9.343 -69.019 
 -8.505  10.583 -69.150 
  4.322   0.171 -68.965 
 -5.642   5.153 -63.581 
 -0.313   4.662 -75.871 
  7.286  -3.424 -68.716 
-11.610   6.060 -71.209 
  1.476  -8.422 -65.758 
  6.180  -5.950 -72.685 
  0.381   6.124 -68.628 
 -5.573  11.422 -66.564 
 -4.340   1.879 -72.686 
  3.346   6.698 -64.762 
  9.648   9.642 -67.860 
 -6.361   0.359 -66.418 
 -6.960   4.682 -64.741 
 -8.183   8.628 -66.672 
 -1.244  10.804 -64.328 
 -2.782  -5.708 -77.708 
 -4.059   8.813 -63.701 
  7.435  -9.447 -67.699 
 12.369   8.321 -72.233 
 -3.929   6.751 -64.886 
-11.073  11.236 -72.532 
 -2.015   3.808 -72.260 
  0.883   9.800 -68.023 
  8.725   3.975 -70.627 
 -9.050   4.888 -65.553 
 -5.557  -2.654 -69.731 
 -7.865  -2.398 -67.139 
  2.266 -11.667 -74.109 
 -3.619   4.933 -64.028 
  1.031   7.754 -67.192 
 -7.681   2.254 -68.797 
 -1.292  12.032 -65.778 
  6.323   7.267 -65.022 
  7.678  11.883 -64.055 
 -6.181 -12.071 -71.699 
  2.418   9.532 -64.936 
 -8.890   9.109 -71.669 
 -0.968   1.450 -65.108 
 -0.502  -1.328 -67.651 
-12.060  -7.268 -66.450 
  0.234   7.620 -65.044 
  4.143  -8.382 -65.397 
 -2.914   7.958 -61.904 
  9.424  11.906 -66.351 
 -3.297  -6.960 -72.771 
  4.360   5.941 -71.502 
 13.717  -2.507 -68.915 
 11.541  -7.635 -65.852 
 -0.998  -6.200 -67.814 
  2.000 -10.390 -67.371 
  6.936   0.061 -69.167 
  2.038  -0.802 -64.182 
 -3.854  -1.906 -70.941 
  6.194  -3.098 -69.279 
 -3.655   1.029 -71.744 
 -5.364  -2.657 -68.335 
 -6.565  -9.497 -65.651 
-13.304   1.137 -77.154 
  6.404   8.552 -75.341 
  8.362  -0.167 -63.235 
 14.637   6.728 -67.155 
  7.867   5.689 -67.987 
  5.325  -1.763 -72.036 
  1.125  -2.369 -68.716 
 16.583   3.883 -65.486 
  0.574   5.165 -62.735 
  1.651  -6.643 -76.516 
  0.565   7.607 -76.407 
 -5.015   8.803 -65.562 
  9.771  -5.724 -62.993 
  3.200 -11.743 -64.777 
  3.701 -11.127 -67.578 
-10.829  -0.547 -71.095 
 -7.724  -0.545 -63.134 
  0.068  -1.092 -68.139 
 -1.845   3.176 -64.263 
  9.011  -8.034 -63.128 
 -9.250  11.888 -64.426 
-10.528  -6.683 -76.852 
 -8.145  13.055 -66.628 
-15.266   3.277 -71.186 
 10.112  -6.279 -66.239 
 13.135   5.760 -66.596 
  3.826  -1.752 -68.531 
 -5.611   5.838 -74.040 
 -1.160   7.919 -68.952 
-11.995   4.975 -74.176 
  4.296  -9.597 -67.644 
  3.877  -8.750 -68.714 
  3.915  -1.728 -70.975 
-11.924  -8.479 -67.103 
  2.707  -5.424 -63.424 
  6.705   9.206 -74.968 
  6.072  -4.607 -65.562 
 -7.796  -1.438 -74.340 
 11.723  -0.482 -66.938 
  9.396  -3.229 -66.767 
  6.293  -0.964 -71.315 
-12.933  -4.306 -70.079 
 -1.337  10.511 -68.085 
-13.443   2.128 -67.829 
-12.230  -0.206 -66.490 
  8.670   3.152 -69.287 
-13.864  -4.657 -70.070 
 -5.164   4.787 -64.053 
  0.281 -11.285 -73.780 
 -6.507  -4.629 -63.563 
  5.321 -12.508 -66.193 
  4.250  -4.159 -74.303 
-12.778   3.896 -72.748 
 -0.248  -0.194 -62.362 
  0.567   3.866 -75.960 
  4.842  -9.524 -66.790 
 -9.848   3.442 -63.062 
  1.383   3.329 -61.732 
  3.088  -0.709 -73.367 
 -6.507 -10.235 -73.641 
 12.919   1.369 -67.186 
  4.169  -0.390 -69.776 
  2.672 -12.067 -64.698 
 -3.150  11.992 -66.130 
 -9.038  -8.819 -66.457 
 11.447   9.395 -69.786 
 -1.595  10.787 -65.650 
  0.007  -6.659 -73.071 
  2.778   4.418 -65.411 
  2.571   2.929 -68.891 
  7.298 -11.484 -65.458 
 -8.555  -8.909 -66.648 
-10.289  -9.173 -67.338 
 -2.626  10.986 -63.010 
 -1.408   4.328 -68.974 
 -3.547  -2.987 -66.172 
 -6.260   8.285 -61.572 
 -9.857  10.137 -66.316 
 11.627   1.682 -65.460 
 -1.158  -4.232 -65.305 
 -3.689   4.648 -61.938 
 -4.269  -6.133 -63.683 
 10.337   6.348 -74.023 
 -0.384  -0.561 -62.979 
-13.982  10.564 -73.967 
  4.130   7.925 -71.432 
  2.558  -3.419 -64.214 
 -1.508   3.874 -67.320 
 -9.854   4.844 -64.314 
-12.778   0.961 -68.864 
 12.188  10.535 -67.681 
  1.468   3.873 -70.721 
  7.630   1.970 -64.871 
 -4.318   5.187 -77.608 
 -3.784  -7.958 -65.011 
 16.876  -0.506 -67.537 
  0.792   3.083 -76.197 
-11.470  10.813 -66.278 
 -5.143   8.971 -68.387 
-10.631  -3.881 -71.924 
 -7.194  -5.556 -72.674 
  6.075  10.793 -69.942 
  3.565  -3.817 -67.784 
 11.269  12.253 -70.051 
 -0.158   0.324 -73.042 
-14.401   2.053 -67.679 
  5.991   4.314 -74.472 
  8.104 -10.444 -66.821 
 -7.084 -11.506 -64.313 
-12.945   0.277 -76.001 
  5.541  -5.667 -67.377 
 -9.016  -2.942 -73.319 
 10.172   4.106 -61.874 
 -6.618   8.066 -75.834 
 16.330   3.948 -71.394 
 -8.880  -0.787 -68.547 
 -8.095   3.588 -75.786 
 15.004  -5.013 -70.480 
 -9.924 -10.624 -73.649 
  2.580 -10.005 -65.189 
  4.750  -5.245 -73.853 
  7.305   6.966 -71.832 
-14.079   9.046 -69.411 
 16.253   1.818 -75.287 
  7.652   5.871 -63.703 
 -1.737 -11.124 -69.521 
-12.310  11.611 -65.444 
-11.845  -0.911 -65.467 
 14.870   6.737 -69.808 
 16.959  11.458 -68.912 
 -4.111   5.463 -70.070 
 -3.735  -8.142 -72.804 
-12.479   8.395 -67.413 
 -0.210  -6.873 -65.038 
 -2.426  10.709 -69.676 
 -3.363  -3.962 -71.412 
-15.660   7.200 -76.147 
 10.194  -5.920 -68.352 
 -5.417  -7.627 -64.829 
  8.697  -2.843 -71.647 
 -9.320 -12.684 -66.087 
-11.804   2.665 -74.637 
  2.698  -9.480 -73.114 
 11.793  -3.243 -68.840 
 10.732  -0.784 -64.927 
  7.520   9.832 -69.087 
 16.880  11.140 -73.314 
 16.778   6.942 -66.641 
 -9.808  -0.049 -71.164 
 -9.367  -7.106 -68.291 
 13.540   8.866 -67.400 
  7.986  -6.077 -67.925 
 -5.983  -5.414 -75.988 
 14.334  -5.534 -70.508 
-13.527   6.833 -70.359 
 14.280   4.196 -70.340 
-13.500  -7.294 -72.277 
 10.233   1.770 -62.374 
  9.501  -8.915 -69.522 
-12.355   8.906 -62.258 
 -4.706  -7.838 -67.566 
 -7.199  -4.905 -67.111 
 -2.633   3.543 -62.021 
 10.088  -0.747 -66.284 
-13.073  11.573 -66.612 
  8.787  11.532 -73.796 
 13.010 -10.995 -73.066 
  1.874  -6.455 -72.864 
 -0.493   1.120 -71.784 
 -2.805   7.522 -73.820 
 17.395  11.227 -68.049 
  8.774  10.509 -65.315 
-13.128   9.768 -68.418 
-13.619  11.516 -74.553 
 12.523   8.282 -68.239 
  8.543  -6.033 -65.989 
-12.077  -4.716 -74.157 
-12.400  13.127 -67.612 
 13.932   2.560 -67.315 
 -1.632  11.694 -74.739 
 13.941   7.040 -70.382 
 -1.238  -0.024 -64.847 
 10.646 -11.573 -71.922 
 -4.364   9.229 -72.107 
-15.006   5.333 -71.408 
 16.860   1.093 -73.033 
 -9.419  -5.208 -65.055 
  8.064   5.735 -66.270 
 14.663   7.941 -70.832 
  1.770   0.885 -64.245 
 11.900  -0.627 -71.672 
  3.918  10.657 -74.533 
 -0.904   8.491 -74.373 
 -1.092  -3.910 -65.353 
 10.714   3.216 -74.775 
-12.822   7.059 -72.174 
  3.012 -12.907 -65.764 
 -3.321   3.329 -67.915 
  8.386  -3.616 -62.093 
 13.348   3.870 -71.202 
  7.488  13.337 -65.562 
 14.046   0.394 -68.289 
  9.079   6.940 -62.950 
  9.087  -6.421 -69.954 
  4.040   4.541 -63.152 
-14.316  -9.798 -73.426 
  8.770  -3.994 -68.380 
 -9.637  -1.466 -75.950 
 12.515   6.901 -77.422 
 -7.095  11.729 -69.274 
 -2.224 -10.457 -65.438 
 10.485   8.817 -64.933 
 -4.839   1.059 -65.991 
 11.139   3.193 -55.224 
-14.103 -11.870 -73.214 
 11.870  12.074 -73.683 
  6.317   8.131 -65.541 
 -4.664   3.527 -76.759 
  5.124   6.059 -61.988 
  1.664  -4.044 -66.182 
  8.944  -1.211 -66.638 
 17.023  -6.984 -69.483 
 12.562  -3.880 -69.385 
 -3.577   0.959 -67.081 
 15.035   1.104 -64.109 
-13.787  11.164 -72.801 
  3.963 -11.756 -66.449 
-14.285  -0.553 -74.955 
 -7.245  -4.231 -77.344 
 10.500  -7.740 -64.639 
-11.926   2.890 -62.080 
 -8.921  -8.637 -65.036 
 -1.043   9.078 -74.851 
 -0.630  -4.666 -72.703 
  0.388  -5.482 -67.753 
  7.050   8.386 -74.987 
  2.218 -12.072 -67.776 
  9.902  -6.822 -66.282 
 -5.072   8.895 -61.935 
 -6.436   2.447 -62.938 
-13.454  -3.340 -76.254 
  3.303  -5.095 -71.311 
  1.874   4.402 -72.636 
 -0.403   5.777 -68.551 
  4.005  10.601 -69.998 
  3.276   4.851 -70.515 
-14.997  -3.993 -69.312 
  3.570  11.151 -70.404 
  6.843   2.324 -69.340 
 -3.659  -0.088 -68.962 
 -3.103   2.290 -60.968 
 -2.157  -3.827 -64.577 
  5.452 -10.189 -71.346 
 10.677 -10.753 -66.739 
-16.267  -6.325 -73.855 
 -4.869  -0.844 -66.696 
 -5.810   0.304 -72.335 
 -0.826  -1.883 -62.727 
 -0.942 -10.866 -65.572 
 -9.076   0.534 -77.569 
-13.147   1.805 -73.637 
  0.723  -6.962 -65.677 
 -9.730   3.189 -71.781 
 -2.132  -3.004 -75.418 
 -4.263  -9.768 -59.885 
 -8.600 -10.207 -76.144 
  9.653  12.427 -69.523 
 -2.673  -8.180 -69.157 
 -5.923   7.365 -61.716 
  1.412   1.541 -61.896 
  3.616  -4.584 -60.773 
  5.518  11.442 -74.562 
 -0.711   9.278 -63.788 
-16.296  -7.376 -75.405 
  3.301   5.210 -65.745 
  4.469  -0.637 -65.183 
 11.224   5.264 -69.019 
 -9.038  -6.154 -62.727 
 16.611   7.707 -66.922 
 -9.510   2.039 -59.780 
 -5.184  -6.239 -63.826 
 -0.837  10.236 -71.889 
 -5.087  -9.934 -70.759 
 -5.434   1.179 -63.480 
 13.597   1.430 -75.130 
 -3.563   2.649 -61.256 
 18.242  -5.777 -68.097 
 14.720  12.793 -67.681 
 15.381 -10.178 -63.308 
  8.441  12.527 -68.790 
  4.237  -3.664 -63.953 
-15.838  -5.530 -70.682 
 -3.614  -7.595 -63.978 
 -2.167  -5.362 -64.407 
 -7.158  11.044 -75.066 
 -2.341  -9.646 -67.957 
 -6.644  -5.053 -76.541 
 13.978  12.079 -68.756 
 14.270  -5.295 -67.817 
  6.261  -2.428 -64.976 
 -5.401  -1.454 -64.075 
 -7.352   1.148 -61.431 
  5.577  -7.219 -70.680 
 -1.533 -10.610 -66.793 
 12.049   6.191 -61.529 
 -3.325 -11.532 -64.543 
 11.082  10.927 -65.386 
 -0.593   4.253 -73.457 
  8.662 -12.645 -62.753 
 15.079  -4.626 -66.696 
 -2.199   2.746 -74.060 
 17.430   2.461 -68.867 
 -8.426  -6.494 -67.674 
 -4.543  -2.402 -62.520 
 -7.406   3.670 -63.162 
 -1.485  -8.903 -70.000 
  5.367  -5.774 -58.825 
 -3.389   0.868 -68.996 
-11.253  -7.722 -74.799 
  5.883  -0.848 -65.932 
 -8.041  -4.831 -77.894 
  4.316  -4.742 -72.070 
  3.042   2.966 -68.261 
 14.381  -4.703 -65.130 
-14.739   8.441 -69.962 
  2.410  -8.287 -70.612 
-16.597  -9.937 -73.912 
 10.158   5.329 -68.399 
-14.090  -2.348 -66.181 
 16.584  -6.757 -71.256 
 11.439   5.998 -65.351 
 15.377 -12.605 -73.527 
  2.936   8.695 -59.137 
 13.534  10.505 -69.377 
-10.913  10.137 -70.186 
  3.285  -8.256 -73.191 
 -5.009   5.118 -60.260 
  7.059  -4.105 -66.853 
-13.238  -0.378 -64.502 
 12.496  -0.878 -75.759 
  7.154  -6.513 -73.639 
  1.056  10.444 -69.605 
 16.412  -3.440 -63.311 
 -9.207   7.104 -75.462 
 -4.402   6.316 -68.560 
  3.452   8.962 -71.755 
  8.721  -3.409 -60.666 
 13.393   6.720 -73.378 
  0.579  10.293 -53.547 
 -5.893  11.945 -60.796 
-12.573   4.333 -77.350 
 -8.958   0.500 -73.871 
  9.324   2.832 -60.011 
 11.422  12.701 -64.185 
 -9.055  -5.467 -61.883 
 13.383  -6.545 -63.700 
 13.753   8.213 -64.293 
  7.247   6.385 -76.352 
  6.838   4.393 -59.980 
  9.460  -2.990 -70.082 
  2.247   6.322 -64.546 
  9.884 -12.276 -71.044 
  6.093 -10.663 -61.834 
  7.793   3.368 -65.327 
  2.720  13.303 -66.807 
  1.528   5.056 -76.701 
 -9.922  -8.226 -65.022 
 -4.876   0.597 -69.155 
 11.640  11.043 -60.578 
  7.303  -2.757 -65.171 
-13.317   6.412 -63.850 
  7.309 -10.936 -64.525 
-12.582  -7.370 -70.352 
 15.522  -9.921 -68.852 
  2.566  12.744 -69.614 
  5.725 -12.411 -66.164 
 -8.354  -3.625 -63.242 
  3.016  -4.297 -58.269 
  3.019   7.303 -59.719 
  9.679 -11.024 -64.675 
 -4.933  10.688 -74.028 
  3.041   7.375 -68.308 
 15.128   9.745 -69.837 
 13.073  -5.644 -74.035 
 -1.554 -10.181 -66.489 
  8.192   9.957 -62.349 
  0.491 -10.924 -70.100 
 -7.226   6.425 -75.567 
  2.896  -7.949 -74.148 
 12.251   6.600 -63.070 
 10.745  -2.771 -71.736 
-14.686  -6.754 -75.323 
 -8.690   2.621 -69.359 
 13.910  -7.118 -64.425 
 15.153   0.196 -66.589 
  4.540   6.765 -71.618 
  6.007  -7.814 -63.024 
 -8.955   1.403 -63.566 
 12.046 -11.575 -70.119 
 14.372  -4.653 -62.905 
 13.701  -6.252 -64.560 
 -5.125  11.515 -68.164 
  6.262 -11.546 -74.726 
 15.319  10.239 -64.349 
  3.307  -0.657 -67.250 
 13.974   6.335 -70.053 
-14.007   5.504 -77.220 
 -2.303   8.237 -68.948 
-10.346  10.753 -70.641 
 -3.774   8.127 -62.749 
-10.342   1.220 -71.087 
 -1.037   4.330 -65.012 
  3.896  -4.208 -72.353 
  5.228  12.122 -61.345 
 11.199   1.073 -71.079 
 12.188  -2.301 -65.534 
 -0.361  -0.106 -76.534 
 -4.111  -6.844 -69.381 
  1.356   6.135 -67.993 
 -5.636   1.797 -64.409 
-10.171   3.720 -68.394 
 15.015  -4.291 -62.837 
  7.569  -7.917 -72.208 
 -3.965  10.889 -72.357 
 15.179  -9.160 -64.992 
 10.514   7.142 -67.209 
  4.052   9.172 -74.630 
 15.332   7.221 -74.388 
-10.588  12.212 -68.059 
 -2.756   2.288 -62.597 
  5.684  -1.299 -72.963 
 -9.744   6.449 -71.000 
 -6.313  -8.838 -66.932 
 -3.533  -7.672 -74.172 
-14.125  -9.280 -73.135 
 11.182   5.639 -67.209 
 -8.747   4.474 -60.237 

 VERTICES 530 1060 
1 0 
1 1 
1 2 
1 3 
1 4 
1 5 
1 6 
1 7 
1 8 
1 9 
1 10 
1 11 
1 12 
1 13 
1 14 
1 15 
1 16 
1 17 
1 18 
1 19 
1 20 
1 21 
1 22 
1 23 
1 24 
1 25 
1 26 
1 27 
1 28 
1 29 
1 30 
1 31 
1 32 
1 33 
1 34 
1 35 
1 36 
1 37 
1 38 
1 39 
1 40 
1 41 
1 42 
1 43 
1 44 
1 45 
1 46 
1 47 
1 48 
1 49 
1 50 
1 51 
1 52 
1 53 
1 54 
1 55 
1 56 
1 57 
1 58 
1 59 
1 60 
1 61 
1 62 
1 63 
1 64 
1 65 
1 66 
1 67 
1 68 
1 69 
1 70 
1 71 
1 72 
1 73 
1 74 
1 75 
1 76 
1 77 
1 78 
1 79 
1 80 
1 81 
1 82 
1 83 
1 84 
1 85 
1 86 
1 87 
1 88 
1 89 
1 90 
1 91 
1 92 
1 93 
1 94 
1 95 
1 96 
1 97 
1 98 
1 99 
1 100 
1 101 
1 102 
1 103 
1 104 
1 105 
1 106 
1 107 
1 108 
1 109 
1 110 
1 111 
1 112 
1 113 
1 114 
1 115 
1 116 
1 117 
1 118 
1 119 
1 120 
1 121 
1 122 
1 123 
1 124 
1 125 
1 126 
1 127 
1 128 
1 129 
1 130 
1 131 
1 132 
1 133 
1 134 
1 135 
1 136 
1 137 
1 138 
1 139 
1 140 
1 141 
1 142 
1 143 
1 144 
1 145 
1 146 
1 147 
1 148 
1 149 
1 150 
1 151 
1 152 
1 153 
1 154 
1 155 
1 156 
1 157 
1 158 
1 159 
1 160 
1 161 
1 162 
1 163 
1 164 
1 165 
1 166 
1 167 
1 168 
1 169 
1 170 
1 171 
1 172 
1 173 
1 174 
1 175 
1 176 
1 177 
1 178 
1 179 
1 180 
1 181 
1 182 
1 183 
1 184 
1 185 
1 186 
1 187 
1 188 
1 189 
1 190 
1 191 
1 192 
1 193 
1 194 
1 195 
1 196 
1 197 
1 198 
1 199 
1 200 
1 201 
1 202 
1 203 
1 204 
1 205 
1 206 
1 207 
1 208 
1 209 
1 210 
1 211 
1 212 
1 213 
1 214 
1 215 
1 216 
1 217 
1 218 
1 219 
1 220 
1 221 
1 222 
1 223 
1 224 
1 225 
1 226 
1 227 
1 228 
1 229 
1 230 
1 231 
1 232 
1 233 
1 234 
1 235 
1 236 
1 237 
1 238 
1 239 
1 240 
1 241 
1 242 
1 243 
1 244 
1 245 
1 246 
1 247 
1 248 
1 249 
1 250 
1 251 
1 252 
1 253 
1 254 
1 255 
1 256 
1 257 
1 258 
1 259 
1 260 
1 261 
1 262 
1 263 
1 264 
1 265 
1 266 
1 267 
1 268 
1 269 
1 270 
1 271 
1 272 
1 273 
1 274 
1 275 
1 276 
1 277 
1 278 
1 279 
1 280 
1 281 
1 282 
1 283 
1 284 
1 285 
1 286 
1 287 
1 288 
1 289 
1 290 
1 291 
1 292 
1 293 
1 294 
1 295 
1 296 
1 297 
1 298 
1 299 
1 300 
1 301 
1 302 
1 303 
1 304 
1 305 
1 306 
1 307 
1 308 
1 309 
1 310 
1 311 
1 312 
1 313 
1 314 
1 315 
1 316 
1 317 
1 318 
1 319 
1 320 
1 321 
1 322 
1 323 
1 324 
1 325 
1 326 
1 327 
1 328 
1 329 
1 330 
1 331 
1 332 
1 333 
1 334 
1 335 
1 336 
1 337 
1 338 
1 339 
1 340 
1 341 
1 342 
1 343 
1 344 
1 345 
1 346 
1 347 
1 348 
1 349 
1 350 
1 351 
1 352 
1 353 
1 354 
1 355 
1 356 
1 357 
1 358 
1 359 
1 360 
1 361 
1 362 
1 363 
1 364 
1 365 
1 366 
1 367 
1 368 
1 369 
1 370 
1 371 
1 372 
1 373 
1 374 
1 375 
1 376 
1 377 
1 378 
1 379 
1 380 
1 381 
1 382 
1 383 
1 384 
1 385 
1 386 
1 387 
1 388 
1 389 
1 390 
1 391 
1 392 
1 393 
1 394 
1 395 
1 396 
1 397 
1 398 
1 399 
1 400 
1 401 
1 402 
1 403 
1 404 
1 405 
1 406 
1 407 
1 408 
1 409 
1 410 
1 411 
1 412 
1 413 
1 414 
1 415 
1 416 
1 417 
1 418 
1 419 
1 420 
1 421 
1 422 
1 423 
1 424 
1 425 
1 426 
1 427 
1 428 
1 429 
1 430 
1 431 
1 432 
1 433 
1 434 
1 435 
1 436 
1 437 
1 438 
1 439 
1 440 
1 441 
1 442 
1 443 
1 444 
1 445 
1 446 
1 447 
1 448 
1 449 
1 450 
1 451 
1 452 
1 453 
1 454 
1 455 
1 456 
1 457 
1 458 
1 459 
1 460 
1 461 
1 462 
1 463 
1 464 
1 465 
1 466 
1 467 
1 468 
1 469 
1 470 
1 471 
1 472 
1 473 
1 474 
1 475 
1 476 
1 477 
1 478 
1 479 
1 480 
1 481 
1 482 
1 483 
1 484 
1 485 
1 486 
1 487 
1 488 
1 489 
1 490 
1 491 
1 492 
1 493 
1 494 
1 495 
1 496 
1 497 
1 498 
1 499 
1 500 
1 501 
1 502 
1 503 
1 504 
1 505 
1 506 
1 507 
1 508 
1 509 
1 510 
1 511 
1 512 
1 513 
1 514 
1 515 
1 516 
1 517 
1 518 
1 519 
1 520 
1 521 
1 522 
1 523 
1 524 
1 525 
1 526 
1 527 
1 528 
1 529 
POINT_DATA 530 
SCALARS MeanU double 1 
LOOKUP_TABLE default
0.15484 
0.07584 
0.09897 
0.05825 
0.17707 
0.09322 
0.13784 
0.14388 
0.13489 
0.14296 
0.09349 
0.07759 
0.12356 
0.15726 
0.12879 
0.17447 
0.17546 
0.09365 
0.20683 
0.16998 
0.12699 
0.14563 
0.13512 
0.05050 
0.13351 
0.17597 
0.14774 
0.06982 
0.14453 
0.18546 
0.19346 
0.17796 
0.20141 
0.11135 
0.09368 
0.15790 
0.13526 
0.09569 
0.22543 
0.12341 
0.15518 
0.17371 
0.11854 
0.14253 
0.15686 
0.12335 
0.10397 
0.11749 
0.10388 
0.09440 
0.13313 
0.02772 
0.17351 
0.19070 
0.10660 
0.15560 
0.08477 
0.12021 
0.07205 
0.16106 
0.12923 
0.18282 
0.22222 
0.15643 
0.12186 
0.12611 
0.13226 
0.09988 
0.08081 
0.09940 
0.06593 
0.15755 
0.05760 
0.11594 
0.15567 
0.12777 
0.14285 
0.16607 
0.16746 
0.03611 
0.12627 
0.11192 
0.09951 
0.06587 
0.16938 
0.12638 
0.20295 
0.14915 
0.14628 
0.20128 
0.18706 
0.09347 
0.14665 
0.07664 
0.15814 
0.16279 
0.11901 
0.12157 
0.20754 
0.23440 
0.09504 
0.12309 
0.03868 
0.09196 
0.14403 
0.15779 
0.11762 
0.15495 
0.13555 
0.11708 
0.18893 
0.09474 
0.16952 
0.12465 
0.10904 
0.09774 
0.08388 
0.13791 
0.12518 
0.13216 
0.08587 
0.11650 
0.14405 
0.17698 
0.18465 
0.15810 
0.06310 
0.31867 
0.06243 
0.26113 
0.10661 
0.08194 
0.11343 
0.19152 
0.12344 
0.07667 
0.09966 
0.23662 
0.17908 
0.12889 
0.13524 
0.11173 
0.24635 
0.12595 
0.12610 
0.12553 
0.06590 
0.09082 
0.16460 
0.13369 
0.11548 
0.14525 
0.10244 
0.13461 
0.15544 
0.11577 
0.11900 
0.08592 
0.14863 
0.09985 
0.07298 
0.10363 
0.16214 
0.11419 
0.04410 
0.08684 
0.12699 
0.15006 
0.13363 
0.14654 
0.21011 
0.13855 
0.18292 
0.10537 
0.12649 
0.15599 
0.07309 
0.04769 
0.11372 
0.30328 
0.15844 
0.13827 
0.14937 
0.06611 
0.11120 
0.17218 
0.09687 
0.13298 
0.04030 
0.08774 
0.10702 
0.10825 
0.16304 
0.13178 
0.08773 
0.15676 
0.15415 
0.15863 
0.14400 
0.18063 
0.13939 
0.11697 
0.10376 
0.19479 
0.18536 
0.15619 
0.05263 
0.06327 
0.26595 
0.06277 
0.09747 
0.10310 
0.18657 
0.07366 
0.10367 
0.08432 
0.14796 
0.13477 
0.12283 
0.14818 
0.23374 
0.16199 
0.13822 
0.03929 
0.10075 
0.17820 
0.14664 
0.07333 
0.15134 
0.06570 
0.12531 
0.16344 
0.17602 
0.18885 
0.10820 
0.20830 
0.04917 
0.17695 
0.07041 
0.15797 
0.16143 
0.11436 
0.10484 
0.12702 
0.06207 
0.10593 
0.12220 
0.19382 
0.10218 
0.12948 
0.16203 
0.07300 
0.06968 
0.08615 
0.23798 
0.12502 
0.12153 
0.09411 
0.14716 
0.09696 
0.18359 
0.16762 
0.08634 
0.11046 
0.06522 
0.17965 
0.07377 
0.02806 
0.19697 
0.16603 
0.05440 
0.14601 
0.09736 
0.10432 
0.15995 
0.11761 
0.10031 
0.08841 
0.07964 
0.18071 
0.08808 
0.12804 
0.12383 
0.08972 
0.09233 
0.12084 
0.18267 
0.18829 
0.04895 
0.08345 
0.20325 
0.13612 
0.13864 
0.04095 
0.04126 
0.16203 
0.13095 
0.13967 
0.13121 
0.10200 
0.14688 
0.13624 
0.07453 
0.13012 
0.07637 
0.13244 
0.18242 
0.15022 
0.07072 
0.07225 
0.10914 
0.15875 
0.20093 
0.17804 
0.05938 
0.04352 
0.12733 
0.08451 
0.06471 
0.12406 
0.07526 
0.07325 
0.16281 
0.05187 
0.10796 
0.13993 
0.10547 
0.12332 
0.17721 
0.13634 
0.12667 
0.15340 
0.09486 
0.15886 
0.15611 
0.11755 
0.11333 
0.12087 
0.20955 
0.14379 
0.09710 
0.19564 
0.19258 
0.14595 
0.18720 
0.21141 
0.15048 
0.06994 
0.14606 
0.16652 
0.20165 
0.11980 
0.03053 
0.15563 
0.09670 
0.11834 
0.11672 
0.18082 
0.12991 
0.12380 
0.10852 
0.06444 
0.13316 
0.09114 
0.12521 
0.11862 
0.15855 
0.11454 
0.16093 
0.09019 
0.19402 
0.15435 
0.08930 
0.17735 
0.12120 
0.22807 
0.11750 
0.11852 
0.13572 
0.09337 
0.05642 
0.17276 
0.07858 
0.20201 
0.12732 
0.13295 
0.12730 
0.05976 
0.11848 
0.13038 
0.09311 
0.11557 
0.22473 
0.15843 
0.09714 
0.11006 
0.16152 
0.20436 
0.08005 
0.06442 
0.10720 
0.14337 
0.08752 
0.08359 
0.04829 
0.13742 
0.19563 
0.08338 
0.13298 
0.09881 
0.18854 
0.14537 
0.17377 
0.03664 
0.13960 
0.15789 
0.12409 
0.07902 
0.22079 
0.07883 
0.27898 
0.24394 
0.03446 
0.12071 
0.05412 
0.18656 
0.14771 
0.14494 
0.19554 
0.08168 
0.23451 
0.26981 
0.14485 
0.14214 
0.10818 
0.09815 
0.07700 
0.09276 
0.15834 
0.14242 
0.19637 
0.08097 
0.14878 
0.09370 
0.12742 
0.16050 
0.08367 
0.22080 
0.18126 
0.16697 
0.19337 
0.14820 
0.02673 
0.14936 
0.08702 
0.21718 
0.16457 
0.13174 
0.07418 
0.11422 
0.13596 
0.11682 
0.14907 
0.18366 
0.17140 
0.14557 
0.12392 
0.08917 
0.15010 
0.27109 
0.10289 
0.11454 
0.11333 
0.06796 
0.10588 
0.13273 
0.08737 
0.16888 
0.13436 
0.14831 
0.07504 
0.11366 
0.16897 
0.12897 
0.21243 
0.16467 
0.10529 
0.07631 
0.11407 
0.19867 
0.13793 
0.08447 
0.14167 
0.12298 
0.10144 
0.20163 
0.15935 
0.10412 
0.16058 
0.12642 
0.16796 
0.09699 
0.17500 
0.13827 
0.06813 
0.13714 
0.15823 
0.11150 
0.09796 
0.07941 
0.08835 
0.11010 
0.12487 
0.16108 
0.19938 
0.21042 
0.06861 
0.17325 
0.06204 
0.15140 
0.17643 
0.06517 
0.11209 
0.15486 
0.20171 
0.09134 
0.09285 
0.13023 
0.11789 
0.08888 

 VECTORS Umean float 
0.09550 0.11000 -0.05250 
0.02750 0.07050 -0.00500 
0.01900 0.09700 -0.00500 
-0.00150 0.05050 -0.02900 
0.05650 0.10550 -0.13050 
0.04800 0.07750 -0.01950 
0.07600 0.10800 -0.03950 
-0.00300 0.12150 -0.07700 
0.04400 0.12750 0.00150 
0.05250 0.13050 -0.02550 
0.01300 0.09250 0.00400 
0.06450 0.03550 -0.02450 
0.03900 0.11600 -0.01700 
0.08400 0.09300 -0.09500 
0.06250 0.10600 -0.03800 
-0.04950 0.16100 0.04550 
0.02600 0.15100 -0.08550 
0.01100 0.09300 -0.00000 
0.10150 0.13400 -0.12050 
0.10400 0.13150 -0.02800 
0.06650 0.07600 -0.07700 
0.02700 0.13850 -0.03600 
0.03100 0.12850 0.02800 
-0.03400 0.03700 0.00500 
0.02700 0.13000 0.01400 
0.02200 0.15250 0.08500 
0.08150 0.10650 -0.06200 
-0.00700 0.06500 0.02450 
0.04800 0.13600 0.00950 
0.05850 0.16750 -0.05400 
0.02450 0.18850 -0.03600 
0.06950 0.10350 -0.12700 
0.10950 0.15950 -0.05600 
0.02150 0.10800 -0.01650 
0.07200 0.05350 0.02700 
0.03900 0.10150 -0.11450 
-0.01400 0.13400 0.01200 
-0.00600 0.08450 -0.04450 
0.04700 0.09800 -0.19750 
0.03250 0.11900 -0.00350 
0.10850 0.09200 -0.06200 
0.11850 0.03700 -0.12150 
0.01250 0.11400 0.03000 
0.07450 0.12150 -0.00150 
0.06250 0.14150 -0.02600 
0.07250 0.09850 -0.01600 
-0.00300 0.09550 -0.04100 
-0.00050 0.11200 0.03550 
0.00350 0.10300 -0.01300 
0.03000 0.08950 0.00050 
0.00350 0.13000 0.02850 
0.02650 0.00800 0.00150 
0.04350 0.07850 0.14850 
0.06900 0.09850 -0.14800 
0.08250 -0.00000 -0.06750 
0.06650 0.12450 0.06550 
0.00050 0.08250 -0.01950 
0.04300 0.09700 0.05650 
0.04150 0.05400 0.02350 
0.07600 0.07900 -0.11800 
0.01300 0.12400 -0.03400 
0.00400 0.17650 -0.04750 
0.10400 0.10650 -0.16500 
0.06450 0.10300 -0.09850 
-0.04150 0.10600 0.04350 
0.03000 0.10650 0.06050 
0.05150 0.09600 -0.07500 
0.03800 0.09050 0.01850 
0.04700 0.05900 -0.02900 
-0.03250 0.09200 -0.01900 
0.02650 0.05400 -0.02700 
0.03550 0.13100 0.08000 
0.02050 0.04400 0.03100 
0.03450 0.09950 -0.04850 
0.07950 0.11700 -0.06500 
0.06100 0.10350 -0.04350 
0.01850 0.11100 0.08800 
0.14550 0.00300 -0.08000 
0.06300 0.12150 0.09650 
0.00800 0.02750 0.02200 
-0.02600 0.11300 -0.05000 
0.02300 0.10750 -0.02100 
-0.08150 0.03450 -0.04550 
0.02150 0.05400 0.03100 
0.11050 0.08350 -0.09750 
0.08500 0.05450 -0.07600 
0.09800 0.11500 -0.13550 
0.05750 0.13650 0.01750 
0.02050 0.14200 0.02850 
0.03950 0.13550 -0.14350 
0.01450 0.18650 -0.00000 
0.01700 0.07250 -0.05650 
0.00800 0.03150 -0.14300 
0.07300 0.02300 -0.00400 
-0.03550 0.09150 -0.12400 
-0.02400 0.16000 0.01800 
0.07550 0.07100 -0.05850 
0.07600 0.08800 -0.03550 
0.10350 0.13750 -0.11600 
0.12300 0.16200 -0.11650 
0.07650 -0.01000 0.05550 
0.01000 0.08650 -0.08700 
0.03150 0.00450 -0.02200 
-0.02900 0.08550 -0.01750 
0.04250 0.12700 0.05300 
0.08100 0.08550 -0.10500 
0.04650 0.07150 -0.08100 
0.06500 0.03950 -0.13500 
0.02450 0.08150 -0.10550 
0.01000 0.08850 -0.07600 
0.12950 0.13100 -0.04200 
-0.01800 0.09300 -0.00150 
0.09150 0.11950 -0.07800 
0.05550 0.10300 0.04300 
-0.06350 0.07250 -0.05100 
0.07650 0.05500 -0.02600 
0.03500 0.07550 0.01050 
0.04400 0.10450 -0.07850 
0.08000 0.06100 -0.07450 
0.06300 0.07700 -0.08700 
0.03550 0.07800 0.00550 
0.06350 0.09600 0.01800 
0.08450 0.11300 -0.02900 
0.07350 0.07300 -0.14350 
0.06700 0.08250 -0.15100 
0.04800 0.11650 -0.09550 
0.03050 0.04900 -0.02550 
0.16950 0.09250 -0.25350 
0.01200 0.02700 -0.05500 
0.15750 0.11600 -0.17300 
0.05900 0.06850 -0.05650 
0.04450 0.06850 -0.00650 
0.02850 0.10300 -0.03800 
0.08750 0.09850 -0.13900 
0.01250 0.07400 -0.09800 
-0.00150 0.07400 0.02000 
0.03100 0.09000 -0.02950 
-0.00550 0.17000 -0.16450 
0.08200 0.10850 -0.11650 
-0.02100 0.10900 -0.06550 
-0.01000 0.13450 0.01000 
0.05550 0.03350 -0.09100 
0.15100 0.06350 -0.18400 
0.01150 0.03650 -0.12000 
0.05150 0.08900 -0.07300 
0.06800 0.10550 0.00200 
0.04750 0.03400 -0.03050 
0.02200 0.08800 0.00450 
0.05850 0.08150 -0.13050 
0.00150 0.13350 0.00700 
0.03050 0.11050 0.01400 
0.07350 0.09600 -0.08050 
0.03850 0.09450 -0.00900 
0.09250 0.07350 -0.06450 
0.06600 0.10100 -0.09800 
0.06700 0.08900 -0.03150 
0.05200 0.10700 -0.00300 
0.02400 0.04950 -0.06600 
0.04300 -0.12900 -0.06000 
0.02850 0.09500 -0.01150 
0.02250 0.06550 -0.02300 
0.02900 0.06650 -0.07400 
0.07600 0.13850 -0.03650 
0.01450 0.04600 -0.10350 
-0.02150 0.02350 -0.03050 
-0.02000 -0.01300 -0.08350 
0.04700 0.11250 0.03550 
0.05300 0.13000 -0.05300 
0.06000 0.09250 -0.07550 
-0.07250 0.10400 0.07350 
-0.01450 0.20900 -0.01600 
-0.00700 0.13400 -0.03450 
0.06800 0.08500 -0.14700 
0.01850 0.10350 -0.00700 
0.06550 0.03750 -0.10150 
0.02100 0.10600 -0.11250 
0.05050 0.05250 0.00600 
0.03200 0.03100 0.01700 
-0.01950 0.11050 0.01850 
0.18850 0.13500 -0.19550 
0.08000 0.13550 0.01850 
-0.01350 0.13600 -0.02100 
0.03100 0.13300 -0.06050 
-0.03500 -0.03600 -0.04300 
0.04200 0.09950 0.02650 
0.02150 0.16350 -0.04950 
0.05350 0.06050 0.05350 
0.06200 0.04300 -0.10950 
-0.01800 0.03600 -0.00200 
0.02450 0.08400 0.00650 
-0.01900 0.09400 0.04750 
0.08650 0.05550 0.03400 
0.04250 0.15600 -0.02100 
0.04850 0.11800 -0.03300 
-0.02300 0.05600 -0.06350 
0.12500 0.08000 -0.05050 
-0.00950 -0.14350 -0.05550 
0.05900 0.12900 -0.07100 
0.01500 0.11600 -0.08400 
0.01400 0.15850 -0.08550 
0.00650 0.13650 -0.02750 
0.07450 0.02550 -0.08650 
-0.06850 0.07700 -0.01200 
0.07500 0.11400 -0.13900 
0.09400 0.08850 -0.13300 
0.03150 0.13100 -0.07900 
0.04500 0.02650 0.00650 
0.00900 0.02100 -0.05900 
0.09850 0.22500 -0.10200 
-0.00000 0.05800 -0.02400 
0.07100 0.05150 0.04250 
0.03150 0.04450 -0.08750 
0.12850 0.07800 -0.11050 
0.03850 0.04050 -0.04800 
0.00400 0.07350 -0.07300 
-0.04800 0.06800 0.01350 
0.00450 0.06150 -0.13450 
0.06250 0.11100 -0.04400 
0.05550 0.03450 -0.10400 
0.08250 0.08950 0.08450 
0.02750 0.14150 -0.18400 
0.07700 0.09000 -0.11050 
0.07050 -0.03200 -0.11450 
0.02900 0.02650 0.00050 
-0.02700 0.09650 -0.01050 
-0.05450 0.16500 -0.03950 
0.06550 0.10550 -0.07800 
0.03650 0.06350 0.00350 
0.07000 0.13400 0.00700 
0.00750 -0.01000 0.06450 
0.06050 0.03350 -0.10450 
0.10600 -0.01500 -0.12350 
0.12700 0.08050 -0.09150 
0.08650 0.02500 -0.16600 
0.04200 0.08350 -0.05450 
0.05100 0.08650 -0.18250 
-0.01500 0.04650 0.00550 
0.02650 0.17100 -0.03700 
-0.01900 0.01750 -0.06550 
0.12300 0.06650 -0.07350 
0.11050 0.09150 -0.07400 
0.01050 0.09800 -0.05800 
0.02600 -0.00350 -0.10150 
0.03950 0.09800 -0.07050 
0.02600 0.02400 -0.05100 
0.07900 0.07000 -0.00900 
0.10000 0.05350 0.04550 
0.01150 0.17750 -0.07700 
0.05950 0.06850 -0.04700 
0.04450 0.12100 -0.01200 
0.04350 0.14550 -0.05650 
0.02800 0.04350 -0.05150 
-0.02300 0.05600 0.03450 
0.07000 0.04950 0.00850 
0.12450 0.09150 -0.18100 
0.02300 0.11750 -0.03600 
0.00750 0.11900 -0.02350 
-0.00350 0.06050 0.07200 
-0.04500 0.05100 -0.13050 
0.08900 -0.03400 -0.01800 
0.04400 0.08800 -0.15500 
0.08300 0.12000 -0.08250 
0.07000 0.04500 -0.02300 
0.09850 0.03000 -0.04000 
0.02300 0.06050 -0.00800 
-0.03500 0.15700 -0.08000 
0.00800 0.07300 -0.00700 
0.00250 0.01250 0.02500 
0.07550 0.12250 -0.13450 
0.07000 0.15050 -0.00400 
-0.00100 0.05150 0.01750 
0.07650 0.05300 -0.11250 
-0.04150 0.02800 -0.08350 
0.06700 0.05050 -0.06200 
0.03800 0.15000 -0.04050 
0.11750 -0.00250 -0.00450 
0.04300 0.07950 -0.04350 
-0.00400 0.04500 -0.07600 
-0.03600 -0.00250 -0.07100 
0.10350 0.09150 -0.11650 
0.06350 0.05800 -0.01900 
0.06550 0.02100 -0.10800 
0.05850 0.10900 -0.00550 
-0.00800 0.08550 -0.02600 
-0.03000 0.04300 -0.07600 
0.02600 0.11500 -0.02650 
0.07400 0.08950 -0.14100 
0.04350 0.11450 -0.14300 
-0.00000 0.02750 -0.04050 
0.03600 0.05800 -0.04800 
0.11500 0.16750 0.00550 
0.07600 0.10400 -0.04400 
0.06950 0.06550 -0.10050 
-0.02400 0.02850 0.01700 
0.02100 0.03500 -0.00600 
0.03550 0.14200 -0.06950 
0.08950 0.07100 -0.06400 
0.00350 0.11000 -0.08600 
-0.00150 0.07800 -0.10550 
0.04250 0.09250 -0.00650 
0.03750 0.11450 -0.08400 
0.06050 -0.03950 -0.11550 
0.07150 0.02100 -0.00100 
0.08950 0.01650 -0.09300 
0.05400 0.05400 0.00100 
0.01600 0.12200 -0.04900 
0.01750 0.16300 -0.08000 
0.01200 0.04900 -0.14150 
-0.02050 -0.05700 -0.03650 
0.00950 0.06800 0.02250 
0.03800 0.06250 -0.08100 
0.00700 0.09500 -0.12700 
0.09750 0.06300 -0.16400 
0.00700 0.17500 -0.03200 