# vtk DataFile Version 2.0 
Xm, Ym, Zm, Uvecs, timestep 10113 
ASCII 
 
DATASET POLYDATA POINTS 524 float 
  5.143  -3.085 -73.871 
 -3.964   2.710 -72.794 
  1.009   9.419 -69.888 
 -7.429  -1.019 -74.683 
 -9.543   7.335 -70.576 
 -1.297   1.071 -71.652 
 -5.244   2.620 -70.971 
  4.266  -4.419 -71.798 
  1.696   6.677 -71.960 
  0.318   7.503 -69.334 
 -5.992   6.172 -72.519 
 -9.422   1.564 -72.677 
 -2.925  -3.048 -71.518 
 -1.428   3.393 -70.220 
  0.470   6.813 -68.481 
  4.518   0.143 -70.432 
 -9.974  11.183 -70.754 
  5.510   3.939 -71.523 
  4.486   6.536 -71.656 
-10.400  -2.965 -72.266 
 -8.073  10.906 -69.049 
  1.693   4.437 -70.530 
-10.360   4.526 -68.483 
 -0.616  10.853 -72.132 
 -9.770   0.512 -71.507 
 -0.216   5.085 -76.182 
  1.066  10.185 -67.859 
 -1.958   9.015 -68.785 
-12.951  -3.785 -70.657 
 -6.876  -4.779 -72.801 
 10.219  -1.486 -68.151 
  1.502  10.996 -66.151 
  0.843  11.067 -69.492 
-11.385   6.824 -71.198 
 -1.792   8.708 -66.601 
  8.480   0.268 -66.536 
 -0.812   8.458 -68.882 
  4.270  -8.256 -69.588 
 -2.907  12.598 -66.203 
  4.184   9.982 -69.063 
  7.543   2.997 -69.975 
 -1.074  12.597 -65.612 
  5.282   0.640 -70.656 
 -2.019  11.038 -72.020 
  6.265  -0.194 -72.674 
 -1.683   4.418 -72.137 
  5.983  -4.922 -68.226 
 -6.960   5.382 -64.788 
  7.774   3.028 -65.102 
  0.504  -7.955 -69.835 
  2.930   3.687 -68.977 
 -6.363   1.160 -66.143 
 -0.390   5.973 -74.424 
  9.389   2.902 -66.078 
 -7.346   2.874 -69.264 
 -8.018   9.130 -66.644 
  4.556   5.183 -73.866 
 -3.354   1.015 -69.087 
 -3.764  -0.998 -70.893 
  4.577   0.784 -69.651 
  9.771  10.191 -68.189 
  6.598   7.636 -65.151 
  6.869  -0.424 -72.034 
  3.870   0.998 -62.191 
  2.504 -10.093 -67.726 
 -3.449  -6.281 -72.878 
  5.286  11.579 -75.136 
 -0.376  -5.708 -68.353 
 -3.951   9.255 -63.133 
 -0.788   2.057 -65.409 
 -2.527   8.659 -61.320 
 -0.744  11.174 -70.328 
  1.791  -1.442 -69.294 
  7.556   0.732 -69.859 
  1.183  -6.521 -66.130 
 11.794  -0.151 -71.775 
 -8.175  -0.018 -75.059 
  0.583   8.166 -76.559 
 -1.295 -10.952 -70.135 
 -9.877   4.253 -62.946 
  8.366  -5.882 -68.345 
 10.185   0.025 -66.450 
 -5.764   6.017 -63.521 
 10.274  -5.172 -63.517 
  9.477  12.069 -66.168 
 -3.850  -6.023 -64.252 
  2.162  -7.848 -66.173 
-11.407   5.120 -69.784 
-13.272   2.778 -68.024 
 -7.633   0.097 -63.625 
  0.349   8.233 -64.498 
 -7.321  -1.847 -68.005 
  9.009  -3.583 -68.599 
 -0.714   0.364 -64.005 
-14.807  -3.321 -69.778 
  5.737  10.122 -72.523 
 11.659  -7.294 -65.755 
 -5.145  12.208 -66.511 
  3.671   5.612 -66.067 
 11.023   3.942 -75.590 
  0.829  -0.310 -68.357 
 -3.511   7.023 -75.657 
 11.906  11.676 -73.907 
  9.550  -2.612 -66.982 
  8.636  -3.761 -64.048 
 13.389   1.848 -67.422 
  1.191   8.338 -66.910 
-10.290  -9.029 -67.547 
 -0.450 -10.470 -65.723 
 -5.997   7.767 -61.677 
 -9.941  11.299 -66.301 
 -1.234  11.543 -64.060 
  7.902   4.204 -68.256 
-11.706  -8.181 -67.252 
  2.328  -0.088 -64.049 
  6.409  -2.388 -70.222 
 -1.638  12.620 -70.770 
 10.424  -5.644 -66.812 
 -2.688   2.722 -62.609 
-13.959  -3.918 -70.490 
  5.931  11.053 -70.256 
 10.892   0.277 -65.063 
 14.998  -5.359 -70.236 
  5.911  -9.961 -72.508 
  3.541 -11.320 -65.204 
 -5.961   6.971 -62.539 
 -5.384   6.295 -73.891 
  8.518  -1.688 -68.189 
 14.451   2.824 -67.912 
 11.380  11.529 -70.379 
  7.303 -11.215 -66.238 
 -8.250  -6.229 -68.333 
 -8.724   1.994 -63.712 
 -2.431   7.909 -73.986 
 -8.933   5.813 -65.710 
 15.116   7.172 -67.534 
  4.053   5.301 -63.463 
 -1.875  -9.580 -68.406 
 -7.638   8.654 -63.448 
 -0.078   1.787 -72.257 
 11.662  -2.989 -68.587 
  3.225  11.624 -70.416 
  6.523   3.486 -66.410 
  3.753  -4.918 -64.837 
-11.863  12.006 -64.909 
 -1.946  -3.299 -65.597 
-10.604  10.714 -70.348 
 -3.537   7.499 -64.474 
 -8.950 -12.590 -66.740 
 11.626   2.456 -65.657 
 -8.233   3.361 -69.653 
 -7.325   1.670 -61.474 
  5.180  -9.158 -67.749 
 -1.212 -11.688 -65.126 
  8.436   0.825 -63.093 
  4.640  -8.959 -69.478 
 -4.159  12.142 -74.566 
  7.399  -1.596 -72.541 
 -5.312   5.335 -60.457 
  7.448  -3.282 -67.805 
  4.161  -1.069 -71.504 
  0.677   4.385 -75.930 
  5.418 -12.300 -66.841 
 13.249  -2.342 -68.844 
-14.206  12.027 -67.352 
  4.645   9.506 -75.416 
 -9.962   5.800 -64.381 
 10.507  -5.662 -68.969 
 -2.795   1.754 -69.057 
 -6.494  -4.362 -68.096 
-15.304   9.938 -78.077 
 12.025  -0.097 -67.013 
-11.651   0.051 -66.483 
 -5.558  -1.721 -69.929 
-12.262   0.919 -67.587 
 12.919   8.258 -72.673 
 -9.626  -6.797 -62.914 
 -6.306  -9.712 -73.653 
 -0.101  -0.472 -63.072 
  4.300 -11.761 -67.120 
-15.090   3.880 -71.097 
 -3.579   5.269 -61.974 
  1.660  -6.143 -68.880 
  0.158   1.073 -73.510 
 -0.936 -12.831 -67.221 
 14.160  11.689 -68.569 
 -0.877  10.708 -66.307 
 11.650   5.554 -69.374 
 15.091   8.072 -71.691 
  5.826   7.940 -73.064 
 15.237   0.583 -66.807 
 -0.835 -10.910 -65.124 
  3.630  -2.644 -65.268 
 -7.340  -9.544 -68.868 
  3.725  -7.883 -74.112 
 16.765  -0.280 -67.581 
 15.285   7.236 -70.410 
-13.320   0.710 -75.981 
-15.680   7.162 -75.757 
 -8.802   9.388 -71.543 
 14.745   4.650 -70.732 
 14.099   0.532 -68.311 
 16.365   4.000 -71.723 
  6.830  -1.366 -65.922 
  3.506  -0.188 -73.725 
 -0.998   0.911 -64.899 
  6.928  -3.883 -66.635 
  4.181  -1.317 -69.047 
-13.615   7.670 -68.388 
  9.005  -5.378 -66.592 
 -5.355  -7.556 -71.972 
  8.192  -9.579 -67.082 
 -4.867  -7.739 -65.858 
 -4.816   9.585 -65.000 
-11.617  11.446 -65.960 
  9.477  -2.891 -70.266 
 12.547   8.391 -68.064 
  8.303  -7.720 -72.945 
-15.251   8.596 -69.739 
 17.099   8.342 -66.999 
 -9.122   7.601 -75.367 
 -5.457  -5.026 -75.941 
 -6.552  -9.326 -66.369 
 -4.187  11.118 -74.170 
-13.894  -1.079 -66.606 
  6.598  -7.098 -63.540 
 10.153 -10.616 -64.909 
  8.565   6.228 -66.420 
 -0.822  10.079 -63.368 
  1.566   3.984 -61.654 
 -4.090   9.750 -72.256 
 13.756   9.325 -67.609 
 17.323  11.419 -69.364 
 17.507  11.667 -73.744 
 -7.986   3.857 -75.904 
 -2.631  -5.649 -77.742 
-10.474   1.924 -71.561 
  9.533  11.942 -69.876 
 -4.838  -3.974 -68.415 
-15.009   5.603 -71.869 
 -6.384  -8.759 -67.394 
-10.069   6.299 -74.406 
  3.082 -11.613 -65.034 
 -0.397  -3.980 -72.752 
 -2.394  11.004 -73.532 
 14.307   7.343 -70.736 
 11.551  -2.974 -74.340 
 17.608   2.583 -69.118 
 12.359 -11.405 -70.082 
  0.093  -5.417 -64.051 
-10.309  -0.662 -60.078 
-13.443   7.787 -70.291 
 17.079  -6.633 -69.540 
  5.386 -10.953 -70.805 
 -1.047 -11.625 -70.463 
 13.923   9.777 -70.096 
  3.169 -12.624 -66.070 
 12.035  10.273 -67.951 
 -0.755  -3.788 -66.102 
 12.744   7.415 -63.312 
 15.415  -4.742 -70.364 
 13.837   4.287 -71.587 
-14.402   9.398 -69.355 
 12.546  -5.568 -64.844 
 -3.399   5.486 -64.797 
  2.310   8.682 -68.849 
 -0.651 -12.241 -67.811 
  4.097 -10.874 -68.352 
 -3.892   5.698 -69.957 
-12.773   9.421 -67.672 
 11.852   6.396 -65.627 
 -0.772   9.234 -74.588 
-13.349  12.273 -67.978 
-10.670   0.018 -71.724 
 -4.168 -11.719 -67.592 
-11.119  -7.010 -75.214 
 -4.250  -1.683 -63.834 
  9.663  -8.644 -69.720 
  6.753  -5.656 -73.229 
 -0.696  -3.469 -66.172 
 -8.550  -2.389 -73.850 
  9.426  -2.337 -72.032 
  9.540  -6.034 -70.167 
 -5.363   1.825 -63.483 
  1.065  10.636 -62.602 
  1.985   5.094 -72.575 
-13.365  10.707 -68.701 
  2.106   1.521 -64.360 
 12.981  -9.409 -68.145 
-13.416   3.399 -74.669 
 14.639  -7.303 -74.061 
 10.179 -12.177 -70.868 
  1.594   5.565 -76.799 
  9.007  -0.138 -66.822 
  9.338   2.571 -64.720 
 -6.868   3.898 -63.041 
 -4.396   4.002 -76.970 
 -2.899  -2.227 -71.963 
 -6.907  -3.991 -77.639 
 -8.799  -6.102 -72.174 
 12.773  -0.641 -76.695 
 -3.235   1.538 -67.114 
 12.635  -3.783 -69.165 
 12.267  -1.729 -65.356 
 -2.724   4.239 -68.123 
 -6.886   7.346 -62.816 
 -2.394  -4.988 -72.825 
  2.611 -11.776 -68.332 
 -8.888  12.622 -64.067 
  7.390  -8.755 -67.042 
 -0.536  -5.741 -70.243 
 -0.731   4.931 -66.906 
  3.984   3.507 -71.601 
 -6.357   2.832 -63.218 
  1.207 -12.368 -64.650 
  6.415   8.601 -65.349 
  3.872  11.292 -69.991 
 -6.562   6.693 -72.338 
  2.614  10.309 -64.583 
  9.115   1.846 -70.074 
  2.537 -11.146 -74.695 
  7.306   7.379 -72.361 
 -6.779 -12.595 -69.370 
  2.366   4.162 -69.328 
-11.056  11.701 -72.624 
 -4.047 -11.826 -76.882 
-11.650   5.500 -74.358 
 -1.850  11.948 -75.165 
 -5.370   2.505 -64.444 
 -9.675 -10.442 -62.585 
  1.503   6.791 -67.921 
 -7.309   2.604 -70.816 
  6.245   9.072 -76.066 
 -1.908   3.172 -73.922 
  3.671   5.867 -70.715 
 10.965  -8.982 -65.035 
 -3.158   5.842 -68.592 
-10.846   9.093 -69.257 
  0.099  -0.603 -67.921 
 -8.613  -4.502 -63.480 
 -2.525 -12.149 -64.928 
 -3.413  -7.095 -74.233 
 -6.563   8.598 -61.392 
  5.105   5.101 -63.245 
 -8.835  -6.455 -65.832 
 -9.807   5.047 -62.500 
  3.002   3.321 -57.203 
-12.673   1.725 -69.355 
 -2.699 -10.819 -68.981 
 -5.752  -4.310 -64.872 
 -2.356  11.575 -62.706 
 -1.055  -3.711 -60.718 
 14.641   2.293 -69.208 
-13.480  -6.658 -72.714 
 10.358   4.887 -62.221 
  5.116  11.424 -63.403 
 -3.301  -2.371 -66.560 
 -4.154  -7.489 -67.594 
 11.936   5.725 -76.479 
  5.918  -0.972 -72.790 
 -7.101   6.862 -75.543 
 13.872  -5.755 -64.641 
  7.521  -2.736 -69.817 
 -1.020   4.514 -67.174 
-11.536  -6.663 -66.738 
 -7.654 -11.652 -76.363 
 -5.550 -10.637 -61.412 
 -1.610  -2.982 -75.486 
 -1.093  -8.492 -70.535 
  8.701   5.146 -60.436 
 -0.251  -1.818 -63.971 
  9.597  -7.278 -63.590 
 -9.196  -9.041 -76.977 
 -1.948  -4.681 -64.901 
  7.484   8.033 -62.148 
 -0.391   0.444 -63.874 
-13.752  10.845 -73.644 
  2.154  -9.483 -63.219 
 11.672  12.750 -63.908 
 -9.803 -10.332 -74.243 
-14.305  -9.346 -73.789 
-10.472  -0.383 -64.321 
  6.370  -0.309 -66.728 
 14.429  -0.898 -62.236 
 -1.555   2.330 -60.566 
-14.332   2.722 -68.066 
-13.520 -11.636 -67.659 
 15.798 -12.890 -73.498 
-10.701  -6.037 -77.069 
-15.537  -4.731 -70.603 
  3.382   1.321 -66.457 
-14.143  -8.895 -73.552 
  3.362  -9.546 -65.795 
 -1.433  -9.364 -74.537 
  2.944   4.827 -65.913 
  4.373  -8.171 -74.713 
  7.455   4.348 -75.898 
  7.658   7.676 -60.230 
-15.700  -5.606 -70.633 
 11.736  -4.716 -66.993 
  7.547  12.518 -64.330 
 -5.703 -11.569 -71.769 
 -2.285  10.994 -69.688 
 -2.221  10.008 -67.729 
  7.404   9.930 -69.525 
 10.400  11.448 -61.337 
 -2.216  -7.853 -69.349 
  0.640 -10.711 -73.433 
 12.147   9.950 -69.620 
-10.978  -2.065 -64.373 
  6.393  10.738 -71.505 
 14.800  -5.024 -67.637 
  5.669 -12.204 -66.858 
  5.656  -5.716 -59.636 
  9.173   3.684 -69.988 
 -9.594 -11.479 -67.128 
  8.306   6.194 -68.173 
  1.579  -0.656 -72.621 
  7.997  12.536 -69.043 
 -0.763 -13.091 -63.700 
 -0.564   4.870 -73.280 
 16.201   2.326 -76.021 
 10.462  -0.216 -61.046 
  5.770   7.359 -63.311 
 16.877   3.917 -65.299 
 11.797  11.687 -60.674 
  3.678   6.882 -75.435 
-12.563  -6.680 -71.030 
 -0.406   8.345 -58.069 
 -5.110  -2.123 -68.814 
 -8.450  -8.127 -65.469 
 -5.662   3.098 -59.866 
 -5.391   1.163 -72.469 
 11.232 -11.631 -71.786 
 11.130  -7.248 -64.960 
 11.589  -3.516 -63.031 
 -4.517  -9.317 -70.984 
 13.352  -5.619 -74.305 
 -4.763  12.119 -67.977 
 15.861  10.954 -64.811 
-15.133 -10.550 -77.626 
 -4.980  10.299 -74.483 
 16.105   9.751 -71.190 
 -3.108  -2.699 -60.126 
  2.497   6.823 -64.832 
 14.850   1.658 -63.862 
 17.084  -1.035 -66.817 
-13.109   2.596 -73.409 
 -9.526  -7.768 -65.572 
  1.824   1.245 -77.223 
 -7.235  -9.565 -59.349 
 -1.670 -10.363 -66.050 
-13.441  11.064 -66.834 
  6.989   5.111 -60.489 
  8.764   5.330 -69.647 
 10.469   2.596 -62.584 
  8.398   9.890 -61.160 
  3.681  -0.163 -67.530 
  9.556   9.378 -56.057 
-14.929  -5.732 -75.076 
 -7.815 -10.271 -57.011 
 15.998  -9.820 -69.273 
 16.096 -11.364 -74.516 
-12.776   7.228 -72.370 
  7.604 -13.216 -68.822 
-12.128   7.749 -71.454 
  0.005  -1.660 -63.522 
  3.983   8.738 -71.458 
-13.238  -1.335 -64.303 
  2.263  -3.647 -67.195 
  1.135  -5.270 -67.957 
 -2.290   8.334 -70.615 
 12.268  -5.021 -62.416 
-16.319  -6.451 -75.598 
 17.107  -1.567 -69.041 
 -4.450   2.132 -65.877 
 18.390  -7.752 -68.966 
 -2.359   2.048 -61.466 
 -8.354   0.460 -69.088 
 16.739  -2.953 -63.319 
  6.204   8.729 -67.400 
 12.781  -2.782 -72.354 
-13.511  -1.736 -77.322 
 10.323  -6.195 -67.026 
-10.259  -2.348 -70.267 
 -3.637 -12.224 -74.608 
-10.828  12.666 -67.769 
  3.784   7.309 -64.703 
 -9.005   2.933 -68.347 
-12.367   4.540 -72.706 
  4.649  -9.218 -68.490 
  6.136   5.265 -74.942 
 11.662   8.640 -69.962 
 -8.896  -8.459 -66.803 
  0.223  -6.178 -65.529 
-11.586   3.255 -74.994 
  7.082   9.274 -73.882 
  4.724  -4.255 -72.629 
-14.174  -0.188 -75.096 
 14.970   2.837 -76.472 
 -6.686  11.863 -69.157 
  1.780   2.329 -62.206 
 -1.436  11.341 -65.513 
 11.681 -10.682 -64.507 
-10.021   3.964 -71.686 
-10.025  -8.788 -64.979 
 -7.033  11.360 -75.332 
  7.500 -10.665 -65.497 
  7.972  -6.141 -74.019 
  2.885   7.889 -59.590 
-13.392  -2.547 -76.497 
  7.637  -2.046 -65.565 
  5.282   3.378 -71.674 
 -6.012   0.706 -60.950 
-10.518  12.576 -68.097 
  8.590  11.815 -74.587 
 -4.468   1.270 -69.289 
 11.367   1.419 -71.645 
-13.524  11.897 -74.336 
 11.691   5.896 -67.569 
 -1.270  11.050 -67.911 
 -8.589  -4.452 -65.882 
 -4.277   6.832 -68.471 
  8.223   4.159 -65.670 

 VERTICES 524 1048 
1 0 
1 1 
1 2 
1 3 
1 4 
1 5 
1 6 
1 7 
1 8 
1 9 
1 10 
1 11 
1 12 
1 13 
1 14 
1 15 
1 16 
1 17 
1 18 
1 19 
1 20 
1 21 
1 22 
1 23 
1 24 
1 25 
1 26 
1 27 
1 28 
1 29 
1 30 
1 31 
1 32 
1 33 
1 34 
1 35 
1 36 
1 37 
1 38 
1 39 
1 40 
1 41 
1 42 
1 43 
1 44 
1 45 
1 46 
1 47 
1 48 
1 49 
1 50 
1 51 
1 52 
1 53 
1 54 
1 55 
1 56 
1 57 
1 58 
1 59 
1 60 
1 61 
1 62 
1 63 
1 64 
1 65 
1 66 
1 67 
1 68 
1 69 
1 70 
1 71 
1 72 
1 73 
1 74 
1 75 
1 76 
1 77 
1 78 
1 79 
1 80 
1 81 
1 82 
1 83 
1 84 
1 85 
1 86 
1 87 
1 88 
1 89 
1 90 
1 91 
1 92 
1 93 
1 94 
1 95 
1 96 
1 97 
1 98 
1 99 
1 100 
1 101 
1 102 
1 103 
1 104 
1 105 
1 106 
1 107 
1 108 
1 109 
1 110 
1 111 
1 112 
1 113 
1 114 
1 115 
1 116 
1 117 
1 118 
1 119 
1 120 
1 121 
1 122 
1 123 
1 124 
1 125 
1 126 
1 127 
1 128 
1 129 
1 130 
1 131 
1 132 
1 133 
1 134 
1 135 
1 136 
1 137 
1 138 
1 139 
1 140 
1 141 
1 142 
1 143 
1 144 
1 145 
1 146 
1 147 
1 148 
1 149 
1 150 
1 151 
1 152 
1 153 
1 154 
1 155 
1 156 
1 157 
1 158 
1 159 
1 160 
1 161 
1 162 
1 163 
1 164 
1 165 
1 166 
1 167 
1 168 
1 169 
1 170 
1 171 
1 172 
1 173 
1 174 
1 175 
1 176 
1 177 
1 178 
1 179 
1 180 
1 181 
1 182 
1 183 
1 184 
1 185 
1 186 
1 187 
1 188 
1 189 
1 190 
1 191 
1 192 
1 193 
1 194 
1 195 
1 196 
1 197 
1 198 
1 199 
1 200 
1 201 
1 202 
1 203 
1 204 
1 205 
1 206 
1 207 
1 208 
1 209 
1 210 
1 211 
1 212 
1 213 
1 214 
1 215 
1 216 
1 217 
1 218 
1 219 
1 220 
1 221 
1 222 
1 223 
1 224 
1 225 
1 226 
1 227 
1 228 
1 229 
1 230 
1 231 
1 232 
1 233 
1 234 
1 235 
1 236 
1 237 
1 238 
1 239 
1 240 
1 241 
1 242 
1 243 
1 244 
1 245 
1 246 
1 247 
1 248 
1 249 
1 250 
1 251 
1 252 
1 253 
1 254 
1 255 
1 256 
1 257 
1 258 
1 259 
1 260 
1 261 
1 262 
1 263 
1 264 
1 265 
1 266 
1 267 
1 268 
1 269 
1 270 
1 271 
1 272 
1 273 
1 274 
1 275 
1 276 
1 277 
1 278 
1 279 
1 280 
1 281 
1 282 
1 283 
1 284 
1 285 
1 286 
1 287 
1 288 
1 289 
1 290 
1 291 
1 292 
1 293 
1 294 
1 295 
1 296 
1 297 
1 298 
1 299 
1 300 
1 301 
1 302 
1 303 
1 304 
1 305 
1 306 
1 307 
1 308 
1 309 
1 310 
1 311 
1 312 
1 313 
1 314 
1 315 
1 316 
1 317 
1 318 
1 319 
1 320 
1 321 
1 322 
1 323 
1 324 
1 325 
1 326 
1 327 
1 328 
1 329 
1 330 
1 331 
1 332 
1 333 
1 334 
1 335 
1 336 
1 337 
1 338 
1 339 
1 340 
1 341 
1 342 
1 343 
1 344 
1 345 
1 346 
1 347 
1 348 
1 349 
1 350 
1 351 
1 352 
1 353 
1 354 
1 355 
1 356 
1 357 
1 358 
1 359 
1 360 
1 361 
1 362 
1 363 
1 364 
1 365 
1 366 
1 367 
1 368 
1 369 
1 370 
1 371 
1 372 
1 373 
1 374 
1 375 
1 376 
1 377 
1 378 
1 379 
1 380 
1 381 
1 382 
1 383 
1 384 
1 385 
1 386 
1 387 
1 388 
1 389 
1 390 
1 391 
1 392 
1 393 
1 394 
1 395 
1 396 
1 397 
1 398 
1 399 
1 400 
1 401 
1 402 
1 403 
1 404 
1 405 
1 406 
1 407 
1 408 
1 409 
1 410 
1 411 
1 412 
1 413 
1 414 
1 415 
1 416 
1 417 
1 418 
1 419 
1 420 
1 421 
1 422 
1 423 
1 424 
1 425 
1 426 
1 427 
1 428 
1 429 
1 430 
1 431 
1 432 
1 433 
1 434 
1 435 
1 436 
1 437 
1 438 
1 439 
1 440 
1 441 
1 442 
1 443 
1 444 
1 445 
1 446 
1 447 
1 448 
1 449 
1 450 
1 451 
1 452 
1 453 
1 454 
1 455 
1 456 
1 457 
1 458 
1 459 
1 460 
1 461 
1 462 
1 463 
1 464 
1 465 
1 466 
1 467 
1 468 
1 469 
1 470 
1 471 
1 472 
1 473 
1 474 
1 475 
1 476 
1 477 
1 478 
1 479 
1 480 
1 481 
1 482 
1 483 
1 484 
1 485 
1 486 
1 487 
1 488 
1 489 
1 490 
1 491 
1 492 
1 493 
1 494 
1 495 
1 496 
1 497 
1 498 
1 499 
1 500 
1 501 
1 502 
1 503 
1 504 
1 505 
1 506 
1 507 
1 508 
1 509 
1 510 
1 511 
1 512 
1 513 
1 514 
1 515 
1 516 
1 517 
1 518 
1 519 
1 520 
1 521 
1 522 
1 523 
POINT_DATA 524 
SCALARS MeanU double 1 
LOOKUP_TABLE default
0.12562 
0.15673 
0.10628 
0.11050 
0.16836 
0.16052 
0.11133 
0.15384 
0.11703 
0.12435 
0.07586 
0.13964 
0.18033 
0.09079 
0.11065 
0.15902 
0.11261 
0.18153 
0.10712 
0.15174 
0.08377 
0.10887 
0.13845 
0.12320 
0.10580 
0.08061 
0.08971 
0.15075 
0.15979 
0.14868 
0.08058 
0.10048 
0.11609 
0.13793 
0.15891 
0.18551 
0.10208 
0.16491 
0.11322 
0.10395 
0.15476 
0.09624 
0.16360 
0.14456 
0.19716 
0.12425 
0.19454 
0.11954 
0.18780 
0.16114 
0.13463 
0.14849 
0.15138 
0.15240 
0.15444 
0.08553 
0.14908 
0.17762 
0.18587 
0.16366 
0.12313 
0.07860 
0.17249 
0.10091 
0.13375 
0.11521 
0.09412 
0.14235 
0.07209 
0.11415 
0.15754 
0.09517 
0.22938 
0.19781 
0.12750 
0.08475 
0.11274 
0.10065 
0.13547 
0.15094 
0.14890 
0.13314 
0.15662 
0.15153 
0.04087 
0.10874 
0.16611 
0.18101 
0.12121 
0.15448 
0.12727 
0.19116 
0.08873 
0.13044 
0.14466 
0.07639 
0.06720 
0.12425 
0.09731 
0.19259 
0.20912 
0.07931 
0.07632 
0.10851 
0.15645 
0.11156 
0.11392 
0.05075 
0.09778 
0.08994 
0.16066 
0.13044 
0.13970 
0.07130 
0.11160 
0.20114 
0.08615 
0.15879 
0.08532 
0.16791 
0.11666 
0.19450 
0.10840 
0.22186 
0.10461 
0.16834 
0.08506 
0.16878 
0.14231 
0.10912 
0.14475 
0.11811 
0.11380 
0.11912 
0.13351 
0.13215 
0.13036 
0.09723 
0.18850 
0.15384 
0.06108 
0.11177 
0.19354 
0.29891 
0.12155 
0.16134 
0.10879 
0.13869 
0.12251 
0.13619 
0.14216 
0.09490 
0.18137 
0.12084 
0.17058 
0.17338 
0.04998 
0.19891 
0.09217 
0.21586 
0.14718 
0.08015 
0.11749 
0.08096 
0.07429 
0.15648 
0.16937 
0.13260 
0.16325 
0.19719 
0.05764 
0.08849 
0.26258 
0.17288 
0.26280 
0.13004 
0.22932 
0.07687 
0.10923 
0.07190 
0.11375 
0.11260 
0.16481 
0.13036 
0.10857 
0.07117 
0.15028 
0.10678 
0.19200 
0.15132 
0.10925 
0.09353 
0.24850 
0.09237 
0.15392 
0.05034 
0.14829 
0.09698 
0.07568 
0.04239 
0.16015 
0.02987 
0.06898 
0.26529 
0.13812 
0.16764 
0.22738 
0.12470 
0.13380 
0.16992 
0.13472 
0.16189 
0.19986 
0.14329 
0.11716 
0.04713 
0.04061 
0.14111 
0.09390 
0.12494 
0.10819 
0.09926 
0.11359 
0.08569 
0.23514 
0.17775 
0.13750 
0.15785 
0.14626 
0.11538 
0.08315 
0.07722 
0.11630 
0.15724 
0.07597 
0.03857 
0.13652 
0.08654 
0.22058 
0.08534 
0.08151 
0.07466 
0.11147 
0.10851 
0.05483 
0.09514 
0.11881 
0.04211 
0.06748 
0.23809 
0.12871 
0.15060 
0.06298 
0.19927 
0.17405 
0.14180 
0.10041 
0.07686 
0.14609 
0.16055 
0.07565 
0.15176 
0.09230 
0.12122 
0.11632 
0.09802 
0.10584 
0.15446 
0.06473 
0.18863 
0.10915 
0.14549 
0.11243 
0.15133 
0.14001 
0.14244 
0.25287 
0.06127 
0.13816 
0.13677 
0.12928 
0.19140 
0.08258 
0.09660 
0.15217 
0.13970 
0.16601 
0.12778 
0.09600 
0.11429 
0.03836 
0.09259 
0.10025 
0.18477 
0.16085 
0.07301 
0.11240 
0.13907 
0.06853 
0.22070 
0.11358 
0.12617 
0.03823 
0.11098 
0.18475 
0.15853 
0.12168 
0.11341 
0.17335 
0.10248 
0.21622 
0.07122 
0.16250 
0.10966 
0.14081 
0.09767 
0.12130 
0.08929 
0.19263 
0.17740 
0.09959 
0.10024 
0.19508 
0.12068 
0.07184 
0.11773 
0.10391 
0.06997 
0.12349 
0.12306 
0.11142 
0.14065 
0.11497 
0.09654 
0.17146 
0.13481 
0.16675 
0.24276 
0.17004 
0.22861 
0.16543 
0.10762 
0.13968 
0.14016 
0.22491 
0.12814 
0.13015 
0.13255 
0.14724 
0.20997 
0.15553 
0.19032 
0.05343 
0.11058 
0.19894 
0.13745 
0.13199 
0.15103 
0.21066 
0.20639 
0.07948 
0.08542 
0.22789 
0.11274 
0.16552 
0.14331 
0.10459 
0.06008 
0.12768 
0.13625 
0.23297 
0.22026 
0.07564 
0.12297 
0.15695 
0.15948 
0.09052 
0.14053 
0.06261 
0.11038 
0.07991 
0.33907 
0.20023 
0.12441 
0.13709 
0.11963 
0.10935 
0.08723 
0.06749 
0.13877 
0.11925 
0.13093 
0.18914 
0.08394 
0.09366 
0.15006 
0.17173 
0.21114 
0.15476 
0.08951 
0.11452 
0.09516 
0.05774 
0.13314 
0.06241 
0.12839 
0.09614 
0.10567 
0.18569 
0.19958 
0.07735 
0.10147 
0.12249 
0.19452 
0.21439 
0.09401 
0.12215 
0.09174 
0.11072 
0.04563 
0.11859 
0.12727 
0.17587 
0.15819 
0.02787 
0.12623 
0.17105 
0.18206 
0.16243 
0.14259 
0.12863 
0.06465 
0.13555 
0.09604 
0.13376 
0.15866 
0.14097 
0.04594 
0.11337 
0.19277 
0.12245 
0.06418 
0.12615 
0.20617 
0.09029 
0.14529 
0.05185 
0.19992 
0.13527 
0.07323 
0.13658 
0.10627 
0.15389 
0.15439 
0.09114 
0.16967 
0.14152 
0.11882 
0.10334 
0.15250 
0.15810 
0.11685 
0.06512 
0.04204 
0.10893 
0.08455 
0.20738 
0.13247 
0.20687 
0.25202 
0.13917 
0.18336 
0.16993 
0.16843 
0.07131 
0.14997 
0.06271 
0.14666 
0.27219 
0.12913 
0.11608 
0.08346 
0.07315 
0.14540 
0.07425 
0.05515 
0.07536 
0.12110 
0.19826 
0.12297 
0.11379 
0.17466 
0.11471 
0.08853 
0.17523 
0.10765 
0.13586 
0.13924 
0.08517 
0.16376 
0.10886 
0.17556 
0.10287 
0.15248 
0.14851 
0.09701 
0.06534 
0.24702 
0.14947 
0.09770 
0.12667 
0.13867 
0.20777 
0.10766 
0.06034 
0.15434 
0.13466 
0.11543 
0.09848 
0.13713 
0.11533 
0.23680 
0.11502 
0.14395 

 VECTORS Umean float 
0.06200 0.10000 -0.04400 
0.06300 0.14250 -0.01700 
0.02100 0.10150 0.02350 
0.07000 0.07300 -0.04450 
0.05600 0.14800 0.05750 
0.09450 0.12900 -0.01400 
0.04000 0.08300 -0.06250 
0.08500 0.09900 -0.08150 
-0.00250 0.11700 -0.00050 
0.03850 0.11800 -0.00750 
0.03700 0.06600 -0.00550 
0.00950 0.12400 -0.06350 
0.07350 0.16450 -0.00750 
0.02300 0.08700 -0.01200 
0.01550 0.10950 0.00350 
0.06350 0.09150 -0.11350 
0.06450 0.07300 -0.05650 
0.09400 0.13400 -0.07850 
0.01850 0.10200 -0.02700 
0.03200 0.13050 -0.07050 
0.06450 0.05100 0.01600 
0.03400 0.09750 0.03450 
-0.03750 0.13100 -0.02450 
0.03300 0.10900 -0.04700 
0.00250 0.09750 -0.04100 
0.01800 0.06850 -0.03850 
0.03000 0.07250 0.04350 
0.06000 0.13500 0.03000 
0.00750 0.08900 -0.13250 
0.04700 0.14100 -0.00400 
-0.03500 0.07150 -0.01250 
0.00250 0.07700 0.06450 
-0.04150 0.10500 0.02700 
0.04000 0.13200 0.00100 
0.02250 0.14500 0.06100 
0.01900 0.18350 -0.01950 
0.05300 0.08700 0.00650 
0.06200 0.07950 -0.13050 
0.03600 0.09000 -0.05850 
-0.00150 0.10350 -0.00950 
0.09050 0.08700 -0.09050 
0.03250 0.08800 0.02150 
0.06250 0.10100 -0.11250 
0.06750 0.12450 -0.02900 
0.09950 0.14600 -0.08750 
0.06200 0.10200 0.03450 
0.07200 0.12450 -0.13100 
0.00050 0.11950 -0.00300 
0.03200 0.18300 0.02750 
0.09000 0.13200 -0.02100 
0.05300 0.11900 -0.03400 
-0.00050 0.14500 0.03200 
0.04500 0.14400 -0.01250 
0.03450 0.11150 -0.09800 
0.05100 0.10700 -0.09900 
0.02450 0.08150 0.00850 
0.06950 0.11050 -0.07200 
0.04800 0.16650 -0.03900 
0.03700 0.18200 -0.00750 
0.04500 0.10950 -0.11300 
0.05950 0.09150 -0.05700 
0.04150 0.06600 -0.01000 
0.09400 0.08900 -0.11400 
0.05900 0.07400 -0.03500 
0.09800 0.05300 -0.07400 
-0.02650 0.11050 -0.01900 
-0.02950 0.02250 -0.08650 
0.09250 0.07000 -0.08250 
0.00500 0.05650 0.04450 
0.02700 0.09900 -0.05000 
0.06500 0.10800 0.09450 
-0.00550 0.09500 0.00150 
0.12650 0.16750 -0.09250 
0.10500 0.11550 -0.12150 
0.08250 0.08150 -0.05300 
-0.01350 0.08000 -0.02450 
0.08200 0.06950 -0.03400 
-0.00000 0.09100 -0.04300 
0.08700 0.02800 -0.10000 
-0.01150 0.15050 -0.00000 
0.09950 0.04200 -0.10250 
0.02400 0.12950 -0.01950 
-0.01900 0.15500 -0.01200 
0.08000 0.09100 -0.09100 
0.01250 0.02650 0.02850 
0.06500 0.00550 -0.08700 
0.11800 0.09650 -0.06600 
-0.03500 0.17700 0.01450 
0.03900 0.10600 -0.04400 
0.01600 0.11750 -0.09900 
0.01800 0.09650 0.08100 
0.08950 0.09450 -0.14000 
0.04150 0.06000 -0.05050 
0.06850 0.11100 0.00050 
0.04000 0.09500 -0.10150 
-0.01700 0.06150 -0.04200 
0.02200 0.06350 -0.00000 
0.04300 0.11650 0.00400 
0.05450 0.05650 -0.05750 
0.04450 0.12050 -0.14350 
0.13150 0.13050 -0.09700 
0.04450 0.06550 -0.00450 
0.02950 -0.06500 -0.02700 
0.02200 0.10100 -0.03300 
0.07150 0.13850 -0.01350 
0.06550 0.08500 -0.03050 
0.02100 0.10550 0.03750 
0.00800 0.02400 -0.04400 
0.05600 0.08000 0.00500 
-0.01300 0.08900 -0.00000 
-0.01050 0.16000 0.01000 
0.00100 0.11850 0.05450 
0.06750 0.11250 -0.04800 
0.04300 0.04950 -0.02800 
0.03700 0.09800 0.03850 
0.03650 0.11350 -0.16200 
-0.04050 0.06850 0.03300 
0.05250 0.11250 -0.09900 
0.01300 0.07900 -0.02950 
-0.02100 0.13650 -0.09550 
-0.04300 0.06050 -0.09000 
0.03400 0.19150 0.00100 
0.10200 0.02250 0.02900 
0.07400 0.02200 -0.20800 
0.06500 0.06850 -0.04500 
-0.05200 0.14250 0.07300 
0.02650 0.08000 0.01150 
0.04150 0.15700 -0.04600 
0.10450 0.04200 -0.08700 
0.04200 -0.09550 -0.03200 
0.01550 0.04850 -0.13550 
0.03150 0.04150 -0.10600 
0.04150 0.09750 -0.04150 
0.07250 0.08200 -0.04700 
0.00700 0.12750 -0.03900 
0.08600 0.07850 -0.06250 
-0.00000 0.12100 -0.04850 
0.07600 0.01600 -0.05850 
0.00200 0.17950 -0.05750 
0.06500 0.11350 -0.08100 
-0.02800 0.03500 0.04150 
-0.06800 0.08850 0.00600 
0.02200 0.16300 -0.10200 
0.16650 0.08700 -0.23250 
0.08300 0.05650 0.06850 
0.03450 0.09600 -0.12500 
0.05150 0.09350 -0.02100 
0.04800 0.11000 0.06950 
0.06450 0.01550 -0.10300 
0.01000 0.13200 -0.03200 
0.06950 0.11650 -0.04250 
-0.01250 0.08000 -0.04950 
0.05900 0.06550 -0.15850 
0.11250 0.04150 0.01500 
0.03300 0.16500 0.02800 
0.07650 0.08700 -0.12900 
-0.02600 0.04050 -0.01350 
0.11450 0.10700 -0.12250 
-0.05550 0.03150 -0.06650 
0.04100 0.13300 -0.16500 
0.03600 0.11350 -0.08650 
0.02100 0.07400 0.02250 
0.01900 0.03000 -0.11200 
-0.07100 0.03100 0.02350 
-0.04450 0.02600 0.05350 
-0.05350 0.09350 -0.11350 
-0.01350 0.16450 -0.03800 
0.05100 0.05050 -0.11150 
0.08950 0.13600 -0.01200 
0.10350 0.08100 -0.14700 
0.00500 -0.01650 0.05500 
0.05450 0.06900 -0.01000 
0.03400 0.16850 -0.19850 
0.00050 0.17250 -0.01150 
-0.01350 0.19100 -0.18000 
0.10250 -0.02350 -0.07650 
0.13200 0.10700 -0.15400 
0.01400 0.06350 -0.04100 
0.04800 -0.02250 -0.09550 
0.00800 -0.00800 -0.07100 
0.02150 0.11100 0.01250 
0.01750 0.11000 -0.01650 
0.08750 0.11750 -0.07550 
0.04300 0.10800 -0.05900 
0.07850 0.06000 -0.04500 
0.03500 -0.06000 0.01550 
0.02350 0.14400 0.03600 
0.06750 0.03700 -0.07400 
0.08850 0.04050 -0.16550 
-0.03150 0.11900 -0.08800 
0.03000 0.07200 -0.07650 
0.06250 0.06650 -0.02050 
0.17500 0.12450 -0.12500 
0.03150 0.05700 -0.06550 
0.04800 0.06400 -0.13150 
-0.02300 0.04450 -0.00500 
0.07200 0.08250 -0.10000 
-0.05250 0.06800 -0.04500 
-0.00350 -0.00950 0.07500 
0.02050 0.03600 0.00900 
0.10450 0.08250 -0.08900 
0.01200 0.02600 -0.00850 
0.01400 0.02900 -0.06100 
0.08350 0.18250 -0.17350 
0.05500 0.09350 -0.08550 
0.05450 0.15700 -0.02200 
0.10950 0.10950 -0.16650 
0.05250 0.06650 -0.09150 
-0.03600 0.12200 -0.04150 
0.07850 0.11000 -0.10300 
0.06150 0.08350 -0.08600 
0.02800 0.15600 -0.03300 
0.09650 -0.01350 -0.17450 
0.02700 0.12150 0.07100 
-0.01500 0.09000 0.07350 
-0.01000 0.01650 -0.04300 
0.00800 0.02300 0.03250 
0.10250 0.02750 -0.09300 
-0.08700 0.03150 0.01600 
0.08750 0.08850 -0.01100 
0.01700 0.10400 0.02450 
0.07850 0.05900 0.01450 
-0.01100 0.03000 -0.10900 
-0.00500 0.07850 -0.03400 
0.04350 0.22750 -0.04050 
0.08550 0.11650 -0.10350 
0.07250 0.06800 -0.09500 
0.07550 0.10950 -0.08500 
-0.03100 0.12950 0.06050 
0.03100 0.10950 -0.01900 
0.02900 0.07150 -0.03100 
0.02750 0.06650 -0.02800 
0.05650 -0.00550 -0.10150 
0.10150 0.10000 -0.06650 
0.04950 0.05700 -0.00850 
0.02700 -0.00150 0.02750 
-0.02800 0.11350 -0.07050 
-0.01750 -0.06950 -0.04850 
0.13500 0.07500 -0.15750 
0.00100 0.04500 -0.07250 
-0.03100 0.01150 -0.07450 
0.04300 0.03500 -0.05000 
0.08150 0.07050 -0.02850 
0.03650 0.10100 -0.01550 
-0.00450 0.04600 -0.02950 
0.07700 0.03100 -0.04650 
0.06600 0.08550 -0.04950 
0.03350 0.01450 -0.02100 
0.06000 0.02700 0.01500 
0.07800 0.10100 -0.20100 
0.04800 0.05500 -0.10600 
0.01400 0.14350 -0.04350 
0.01500 0.06050 -0.00900 
0.08400 0.07800 -0.16300 
0.05650 0.00650 -0.16450 
0.05800 -0.10050 -0.08150 
0.03100 0.06550 -0.06950 
-0.02100 -0.07250 -0.01450 
0.06350 0.06300 -0.11550 
0.07900 0.13250 -0.04450 
0.06600 0.03400 0.01450 
0.10050 0.06400 -0.09400 
-0.03350 0.06850 0.05200 
0.02400 0.11400 0.03350 
-0.00450 0.11450 0.02000 
0.06600 0.05600 0.04600 
0.09550 0.04100 -0.02000 
0.08550 0.03600 -0.12350 
0.04600 0.04300 0.01500 
-0.05250 0.16950 -0.06400 
0.05550 0.07150 -0.06100 
0.02950 0.13100 -0.05600 
-0.07050 0.08050 -0.03450 
0.03100 0.08400 -0.12200 
0.09050 0.08700 -0.06200 
0.02250 0.12550 -0.06350 
0.01700 0.15700 -0.19750 
0.02700 0.04400 -0.03300 
0.11500 0.05800 -0.05000 
0.05500 0.05700 -0.11150 
0.05950 0.07600 -0.08600 
0.14300 0.10050 -0.07800 
0.06350 0.03200 -0.04200 
0.00100 0.09500 -0.01750 
0.01500 0.10300 -0.11100 
0.01350 0.13800 0.01700 
-0.03950 0.16050 -0.01550 
0.05650 0.11450 -0.00500 
0.05200 0.07550 -0.02850 
0.06350 0.01000 -0.09450 
0.01300 -0.02450 0.02650 
0.04150 0.03900 0.07300 
0.03550 0.09050 0.02450 
0.01400 0.17950 -0.04150 
-0.01500 0.14500 -0.06800 
0.00600 0.07050 0.01800 
0.04050 0.08800 -0.05700 
0.03250 0.13100 -0.03350 
0.05100 0.01700 -0.04250 
0.05000 0.15200 -0.15200 
0.00250 0.05650 -0.09850 
0.05200 0.10950 0.03500 
0.01800 0.00900 0.03250 
0.01550 0.10900 0.01400 
0.10050 0.15500 0.00250 
-0.02450 0.14250 0.06500 
0.01950 0.12000 0.00500 
0.04950 0.03850 -0.09450 
0.05400 0.16450 0.00850 
0.00750 0.05750 -0.08450 
0.14650 0.15800 -0.01800 
0.04800 0.05250 0.00350 
0.07100 0.14450 -0.02200 
0.01650 0.06400 -0.08750 
0.13150 -0.02850 -0.04150 
0.00300 0.09450 0.02450 
-0.03300 0.11600 -0.01300 
0.03700 0.08100 -0.00650 
0.04000 0.16500 0.09100 
0.07000 0.09700 -0.13100 
0.02500 0.07700 -0.05800 
0.00050 0.06650 -0.07500 
0.07000 0.09950 -0.15250 