# vtk DataFile Version 2.0 
Xm, Ym, Zm, Uvecs, timestep 10078 
ASCII 
 
DATASET POLYDATA POINTS 519 float 
 -1.845   0.695 -70.182 
  2.281   7.822 -71.489 
  8.700   0.972 -70.025 
  9.091   1.565 -70.364 
  1.859   3.564 -70.154 
 -4.434  12.107 -72.919 
 -5.135  -1.187 -69.828 
  2.549   6.519 -70.144 
-15.595   7.531 -74.433 
  1.978   1.491 -69.026 
  5.944   4.581 -71.454 
 14.849  -0.076 -71.549 
  0.392   5.845 -66.323 
 -5.033  -5.150 -69.703 
-10.700  -0.782 -75.892 
  7.486   1.590 -67.973 
  6.875   0.568 -67.732 
  2.548  -3.499 -74.103 
  6.803  -1.559 -72.236 
 -2.556   5.778 -67.124 
  4.903  -2.180 -68.627 
  8.839   7.912 -70.134 
 -3.367   5.902 -69.639 
-12.348   7.388 -72.588 
 -5.861   6.720 -71.537 
 -7.138   2.123 -65.241 
 -8.104  -7.703 -70.631 
  5.559  -2.323 -71.450 
 -5.893   5.085 -69.891 
-10.223   3.385 -71.940 
 -5.353  -2.013 -74.714 
  5.000   0.402 -67.333 
 11.991  -2.214 -69.226 
 -1.648   4.246 -64.875 
 -2.637  11.003 -71.283 
 -2.928  -0.200 -69.376 
 -2.154  -7.840 -68.484 
 -9.286  -9.210 -66.734 
 -3.262  12.640 -66.427 
 -7.969   4.453 -67.423 
 -9.986  -4.389 -69.846 
 -6.776  -8.058 -70.285 
 11.106  -2.764 -72.826 
 -2.482   5.742 -74.261 
 -4.604   4.659 -73.328 
  1.542  -4.963 -70.761 
 -8.250   0.774 -61.984 
  0.534  -1.793 -73.166 
 -2.628   8.814 -65.845 
  2.426  -0.301 -68.802 
-10.656  -3.171 -70.012 
  2.886  12.006 -66.738 
 -7.506  -3.474 -77.777 
 -0.805  -1.503 -71.027 
 -5.765   7.018 -68.834 
 -6.747   0.330 -66.999 
  8.101  -5.094 -68.096 
  6.160   5.280 -71.543 
 -3.359  -1.122 -70.530 
-13.506  -6.294 -71.063 
 -3.550   3.409 -68.914 
 -7.807  10.740 -70.826 
 -7.778  -4.928 -67.754 
  9.861   2.408 -71.692 
  4.831   8.873 -65.677 
  2.757   4.402 -67.885 
 -2.505  -0.588 -64.669 
  4.346   3.814 -68.285 
 -7.232  -1.024 -64.047 
 -9.215   6.811 -66.891 
 -5.982  -1.280 -75.293 
 -1.683  -6.305 -68.671 
-14.125   0.386 -69.308 
  1.954   9.808 -68.952 
  3.610   4.258 -70.545 
 -0.553   3.385 -63.977 
 -2.494  -4.577 -67.554 
 -2.603  -2.827 -73.906 
 -3.000   6.672 -67.417 
  5.555   4.665 -64.876 
  8.145  10.652 -67.897 
  9.802   3.609 -68.916 
-12.765  12.134 -73.145 
  4.457   9.812 -68.167 
 -4.457  -1.551 -67.154 
 -2.844   4.816 -63.873 
  4.752  -7.358 -67.534 
  7.430   8.479 -73.332 
  1.886   4.175 -65.952 
 -7.564   5.138 -66.046 
 -7.926   0.412 -66.082 
 12.301   4.164 -73.737 
 -0.311  -6.281 -64.433 
  8.361   7.641 -66.725 
 13.984  -6.242 -67.161 
 -4.383  -2.954 -63.930 
 -5.184  -2.108 -67.698 
  9.557  -3.592 -66.955 
  1.022  -5.029 -71.109 
 13.396   4.251 -65.736 
 -8.299   8.860 -64.232 
 -4.037   9.768 -62.935 
  7.043  -0.258 -68.271 
-14.235  -9.148 -74.054 
  6.193  10.852 -71.954 
 -0.427   6.470 -60.641 
 -1.070  -5.556 -63.987 
-14.067  -0.546 -67.219 
  5.164  -4.640 -66.370 
 -9.724  10.272 -65.657 
-13.249   8.040 -70.828 
 -1.896   8.614 -73.265 
 -0.164  -0.154 -64.880 
  5.338 -11.120 -66.517 
 -2.017   0.970 -75.048 
-15.460  -6.884 -75.284 
 -4.938   9.229 -62.462 
-15.538   5.995 -70.722 
  3.508  -1.580 -69.061 
 15.890   6.671 -68.379 
 -4.793 -10.366 -69.201 
-11.651   2.019 -67.391 
-15.589   2.053 -73.259 
  1.917 -11.517 -69.210 
-11.137   1.496 -72.999 
 -1.819  12.371 -62.020 
 -6.103   2.173 -62.350 
  6.614   6.280 -66.374 
  9.079  -8.021 -64.412 
 -0.068  11.916 -64.990 
-13.915  -1.382 -66.102 
 -9.703   3.142 -72.035 
 10.608   9.130 -67.459 
 -4.870   3.269 -62.183 
  6.175  -8.128 -64.035 
  6.059  -6.729 -64.415 
 10.179   4.840 -66.266 
 -2.247  -2.697 -70.389 
-10.732   0.391 -63.284 
 -5.893   0.793 -61.612 
 -0.147 -11.628 -73.230 
-11.976  -2.970 -65.147 
-12.791   7.426 -66.570 
  9.471  -1.448 -71.216 
  5.986   1.017 -67.799 
  0.261  -5.216 -63.522 
  6.076   7.657 -66.559 
  3.146  -3.532 -65.022 
-14.359   8.826 -72.342 
 -4.201  12.585 -70.347 
 -5.350  -6.167 -70.316 
 14.767   1.265 -71.668 
  1.622  -2.023 -65.898 
  1.306  12.260 -70.243 
 -4.234   2.426 -73.627 
 -1.483  -9.096 -64.825 
 -0.682  -9.648 -66.569 
 -6.480  11.665 -73.237 
 -5.439  -9.386 -64.679 
 -2.285   0.807 -64.500 
 -3.988  -3.709 -61.421 
 -3.986  -7.900 -67.672 
  4.384 -12.136 -68.169 
 10.946  -2.196 -67.535 
 17.983   3.652 -71.179 
 -7.240  -4.168 -68.826 
 -4.824   7.274 -69.913 
 -3.708  13.092 -66.326 
-10.909   6.949 -66.094 
  5.665   0.819 -65.418 
 -8.579   7.551 -73.618 
  3.384   9.714 -73.002 
  3.974   9.032 -66.794 
  5.040   8.056 -61.370 
 -9.082  -8.341 -67.772 
 -5.027  -4.541 -66.558 
  4.896 -11.670 -71.345 
 10.563  -1.977 -65.067 
 -4.875   1.480 -62.093 
 -7.480  -0.963 -61.339 
 -6.191  -1.200 -62.203 
  2.776  -9.619 -62.804 
 -7.915   8.038 -67.166 
  8.491  -8.453 -65.694 
 17.887   8.895 -68.986 
  6.736   9.575 -74.041 
  8.310 -11.762 -69.244 
  6.040  -6.563 -67.259 
  5.877   7.970 -63.385 
  6.609  -8.829 -69.290 
  6.844  -7.469 -64.367 
-11.860  10.927 -65.528 
 -6.359  13.294 -64.536 
 -6.838  -7.578 -65.325 
 -1.919  12.094 -69.588 
 -4.169   3.047 -67.382 
-10.320  -2.171 -61.814 
  9.011 -12.163 -66.702 
  9.799   4.434 -62.817 
 -6.727   0.570 -63.766 
  1.275   1.525 -63.630 
  0.097 -10.881 -73.502 
 10.858  -9.635 -67.139 
-15.006  -1.396 -75.268 
-11.947  -7.463 -68.465 
  0.727   4.761 -61.555 
 -4.148  11.178 -72.299 
 -1.793 -11.614 -64.725 
  9.771   3.859 -70.620 
 -1.700  -7.044 -61.835 
 -8.276  11.145 -69.943 
 -7.327   5.928 -70.266 
 -5.123  -0.556 -70.078 
  9.230 -12.514 -66.359 
 11.861  -0.263 -73.576 
 -6.858  -3.015 -67.917 
-13.834   8.169 -74.667 
 -2.901  -0.993 -64.435 
 11.031  -3.700 -65.260 
 11.671  10.793 -65.227 
  9.713   7.543 -63.850 
 -1.718   5.204 -69.406 
  4.293   5.133 -69.758 
  9.532 -11.782 -68.495 
 -5.514  -4.555 -65.945 
  6.317   3.272 -74.465 
  4.579   3.208 -63.448 
 -1.104  -4.043 -66.654 
-14.058  -7.891 -72.859 
  4.351  -3.744 -70.144 
 -9.435   3.447 -75.386 
 -1.527  -0.438 -58.534 
-15.676  -1.604 -73.284 
  6.989   8.498 -63.993 
  9.303  -7.406 -67.477 
 15.788   9.463 -70.198 
-10.061  -4.161 -72.423 
-12.613 -11.096 -75.177 
  7.914  -1.930 -59.619 
 15.609  11.265 -73.036 
 -7.656  -8.558 -60.927 
-13.968  -3.478 -68.731 
 11.630  -6.109 -70.984 
  7.895   7.219 -72.635 
  9.531   0.772 -70.688 
  7.761  -6.771 -70.238 
  0.010  -6.143 -62.850 
  0.179   5.030 -75.182 
  1.364   1.449 -66.191 
 -6.021   9.670 -63.937 
  8.956  -1.109 -71.623 
 11.372   0.707 -66.305 
 -7.024   6.603 -61.817 
 -0.958   1.964 -71.919 
 -8.649  -0.708 -66.356 
 14.631  -3.787 -74.594 
  3.655  -8.432 -66.432 
-13.227  12.712 -66.754 
 -4.620  -4.848 -75.224 
 13.756  -1.739 -66.041 
  8.314   9.872 -66.670 
  1.333  -1.665 -65.102 
 -0.276   4.813 -59.026 
-10.108   7.883 -63.722 
  0.158   9.125 -73.457 
-10.063  10.562 -76.096 
 11.940   7.438 -64.236 
 16.277  -1.398 -66.844 
-10.012  -5.026 -74.450 
 -4.035  -2.136 -74.201 
-13.607   6.081 -67.779 
 -8.569   8.585 -66.546 
-16.022  -9.785 -75.771 
-10.432  -8.325 -74.296 
  1.269   2.399 -71.209 
  8.539   7.000 -65.123 
  2.258 -12.904 -69.339 
 -3.481  -7.354 -74.484 
 -5.632  -8.498 -71.645 
 16.444  -5.075 -73.749 
-11.302   2.553 -71.869 
 -7.062 -10.207 -67.725 
-12.961   0.288 -70.710 
  8.143   4.171 -60.754 
 -5.858  -1.535 -62.182 
  5.752   7.060 -75.756 
  4.123  -2.212 -68.733 
 15.044  10.101 -73.534 
 14.682   2.332 -66.775 
-10.616  -8.450 -69.159 
 -3.171  -5.992 -66.524 
-12.524  -3.507 -64.829 
  8.322  10.797 -73.785 
-13.386  -7.444 -72.422 
  6.384  -9.930 -65.395 
  8.573  -5.960 -65.557 
 -8.166   0.516 -72.274 
-13.595  11.878 -67.626 
 -1.701  -4.305 -68.494 
 -4.748  -6.849 -77.274 
 11.579   8.415 -66.309 
 -0.130  11.066 -73.026 
 12.711  -5.377 -68.110 
 -7.688   6.010 -67.756 
 -6.217  10.085 -69.936 
 -4.711 -11.099 -68.249 
 -1.550  -3.620 -73.135 
 -5.099  -7.891 -69.866 
 11.662  10.377 -70.495 
-13.928   5.013 -71.380 
 -0.857  -0.172 -76.460 
 15.084   0.097 -65.273 
 14.861  -0.778 -64.920 
 12.492  10.732 -68.189 
  1.523  -6.989 -66.449 
 14.253  10.758 -69.200 
-13.334   6.194 -69.727 
 -3.651  -8.081 -62.074 
-11.977  12.017 -66.873 
 -6.281  11.013 -69.331 
 -9.503  11.867 -68.416 
  3.284  11.115 -64.766 
 -3.403   0.146 -74.025 
  6.665  -7.539 -66.895 
 -0.356   3.848 -67.675 
  4.611   2.638 -70.615 
 -2.311  -7.619 -69.951 
 -9.819   2.582 -68.373 
 -1.783  -7.956 -74.862 
 -0.362 -11.668 -70.742 
  1.753  -5.494 -63.849 
-10.834   7.767 -68.947 
  4.543  12.515 -65.366 
 -1.567  -6.537 -77.058 
  9.912   6.074 -68.162 
  6.245  -0.466 -73.208 
  2.265 -12.009 -68.512 
 -6.185   0.974 -71.522 
-11.292  11.206 -65.501 
  0.549  -4.576 -64.501 
-12.087  10.230 -71.038 
 -8.389  -7.665 -63.231 
  5.979  12.317 -73.603 
  8.467 -10.832 -60.552 
  7.640   8.902 -62.232 
-12.188  -1.376 -74.205 
  1.533  11.811 -73.748 
  0.310 -11.088 -69.415 
 -7.526 -11.493 -71.591 
  5.074  -0.902 -73.851 
  8.906   7.441 -67.977 
  2.011  -2.065 -72.772 
-10.041 -12.268 -67.930 
 -1.415   9.355 -73.821 
 -5.210   9.499 -63.983 
 13.461  -4.356 -64.520 
 -5.910   0.080 -67.864 
 -7.107 -11.861 -65.479 
  1.186  -8.628 -64.404 
 -3.029  -1.507 -63.284 
-13.773 -12.519 -70.745 
  1.282   8.573 -66.894 
-10.942   1.398 -69.460 
 -7.957 -10.086 -63.679 
  1.851   6.691 -61.752 
  9.505 -11.091 -65.174 
-13.142 -12.185 -70.850 
 -7.315   2.779 -66.395 
 -2.429   9.961 -68.011 
-12.226   5.090 -68.424 
  1.764   5.726 -70.748 
 -1.111  -3.067 -60.569 
  2.967  -2.075 -66.464 
  0.871  13.161 -62.017 
  2.582  -5.311 -66.488 
 -9.021  11.443 -63.466 
 -5.751   0.641 -64.598 
 14.240  -1.286 -72.127 
 -3.277  12.309 -66.438 
  1.185  -4.396 -62.272 
 16.854  10.822 -67.609 
  1.070  10.977 -71.208 
  6.563 -11.358 -65.347 
 17.346 -11.937 -68.051 
  8.027  -6.439 -63.140 
 -4.508   7.614 -63.846 
  0.707  -3.517 -75.981 
  3.229  -3.412 -60.514 
-11.468   0.004 -63.822 
  0.472   4.181 -77.138 
  4.948 -10.095 -60.877 
 14.876   7.044 -74.070 
  3.285 -10.089 -62.484 
 10.761   6.898 -76.749 
-14.093  10.198 -67.743 
 -4.240  -3.333 -62.659 
  0.183  -3.408 -60.875 
  4.322  -6.016 -73.434 
  3.285  10.783 -77.578 
  9.962   0.474 -62.191 
  4.430   1.724 -68.048 
 13.487   9.577 -63.477 
  3.232 -10.796 -69.103 
 14.647   3.426 -73.435 
-13.735  -3.775 -64.979 
-10.357   0.815 -73.490 
-14.583   4.475 -69.451 
-12.005 -11.561 -61.708 
-13.533   6.482 -64.645 
 11.041  -3.826 -62.181 
 17.193  -3.294 -66.721 
 15.210  -4.941 -65.900 
 -6.447   9.354 -74.962 
 -9.237   3.748 -63.197 
 -1.597  -2.824 -60.788 
 -9.796  -9.671 -62.554 
  6.561 -10.310 -67.523 
-15.651   8.740 -76.357 
  1.413 -10.950 -72.560 
 -6.080 -12.335 -65.990 
 -6.159  -4.780 -72.520 
 -3.819  10.242 -67.683 
-13.544 -12.378 -65.781 
 -8.597  -6.255 -60.023 
 13.139  -7.084 -65.768 
  5.248   6.048 -61.288 
-12.259  -8.951 -71.270 
 10.685 -11.212 -71.825 
 16.456 -11.627 -68.297 
-11.732  -4.495 -75.459 
 16.572  -9.939 -68.182 
 10.250   9.587 -64.124 
 10.648  -5.814 -70.530 
 17.621  -6.703 -66.666 
  1.035   9.635 -64.914 
 -4.851  -9.134 -68.791 
 -2.672   4.117 -73.234 
-14.599   1.321 -67.469 
  4.271  -6.713 -59.767 
 -7.755   9.596 -63.495 
 10.313  -7.907 -65.023 
 13.495 -12.253 -64.124 
  9.503  -2.688 -62.396 
 13.270 -11.983 -64.909 
 -3.669  -2.313 -66.359 
  0.240  -2.390 -62.690 
-15.837  -5.824 -77.142 
  2.922   9.181 -61.706 
 13.597   5.079 -74.710 
  6.265 -10.625 -66.858 
 12.709   6.142 -64.120 
 -4.183   4.861 -66.441 
  5.428   3.752 -67.479 
 -8.416   6.546 -72.108 
 12.416  -0.125 -71.509 
-11.044   5.532 -67.424 
 15.363  -5.276 -66.471 
 -2.439  11.037 -59.975 
-11.183   3.436 -75.060 
 11.692   5.883 -65.993 
 14.140  -6.107 -68.682 
  4.355   0.565 -74.464 
 -7.228   6.531 -72.144 
  3.673  10.959 -60.613 
 11.391   1.935 -67.269 
 -5.115  -8.823 -71.177 
  1.717   0.819 -77.167 
 -8.915   6.201 -58.471 
  3.297 -11.015 -67.508 
 -2.711  -1.951 -68.655 
 12.713  -2.805 -62.246 
-14.997  -6.600 -74.362 
 -8.761  10.426 -63.980 
 16.319   2.301 -72.290 
 15.698  -2.668 -73.452 
 -7.055   6.074 -66.548 
 10.444  -7.708 -75.489 
 12.628  -4.410 -65.940 
 15.753   8.104 -64.983 
 -1.037  -1.450 -71.026 
  8.616   9.218 -71.376 
  1.854   3.013 -60.162 
 11.377   1.026 -63.353 
  2.904   7.755 -64.192 
 14.218   4.152 -64.715 
 14.977  10.006 -65.769 
 -5.344   8.845 -73.679 
 -9.369  -2.584 -70.784 
  1.494   4.514 -74.276 
 -8.344  10.016 -68.590 
-12.267   0.855 -72.258 
 10.294  12.739 -64.001 
 -2.976   3.689 -63.796 
-14.567   8.593 -77.050 
 -4.914  -9.540 -71.745 
 -9.519  -9.052 -69.911 
 12.056   6.691 -68.044 
  7.996  -1.260 -73.060 
  1.302  -2.294 -73.605 
  8.716  -3.430 -70.939 
  2.920  12.872 -65.833 
 -2.814   5.630 -65.915 
  7.031  -7.827 -65.435 
  8.082  -8.595 -64.510 
 -5.166   9.945 -69.687 
  9.839   4.808 -64.220 
 -9.229   6.285 -73.523 
  1.829 -10.749 -67.219 
  0.729  -8.759 -60.736 
 16.820  -6.346 -75.840 
  8.212  -4.660 -74.754 
 -5.149  -3.906 -66.599 
 -4.099   7.361 -71.334 
  6.790  10.872 -73.863 
 13.330 -12.959 -67.339 
 11.623   5.119 -75.868 
-11.836   4.367 -62.204 
 -2.021  10.360 -75.009 
  8.645  -0.199 -61.105 

 VERTICES 519 1038 
1 0 
1 1 
1 2 
1 3 
1 4 
1 5 
1 6 
1 7 
1 8 
1 9 
1 10 
1 11 
1 12 
1 13 
1 14 
1 15 
1 16 
1 17 
1 18 
1 19 
1 20 
1 21 
1 22 
1 23 
1 24 
1 25 
1 26 
1 27 
1 28 
1 29 
1 30 
1 31 
1 32 
1 33 
1 34 
1 35 
1 36 
1 37 
1 38 
1 39 
1 40 
1 41 
1 42 
1 43 
1 44 
1 45 
1 46 
1 47 
1 48 
1 49 
1 50 
1 51 
1 52 
1 53 
1 54 
1 55 
1 56 
1 57 
1 58 
1 59 
1 60 
1 61 
1 62 
1 63 
1 64 
1 65 
1 66 
1 67 
1 68 
1 69 
1 70 
1 71 
1 72 
1 73 
1 74 
1 75 
1 76 
1 77 
1 78 
1 79 
1 80 
1 81 
1 82 
1 83 
1 84 
1 85 
1 86 
1 87 
1 88 
1 89 
1 90 
1 91 
1 92 
1 93 
1 94 
1 95 
1 96 
1 97 
1 98 
1 99 
1 100 
1 101 
1 102 
1 103 
1 104 
1 105 
1 106 
1 107 
1 108 
1 109 
1 110 
1 111 
1 112 
1 113 
1 114 
1 115 
1 116 
1 117 
1 118 
1 119 
1 120 
1 121 
1 122 
1 123 
1 124 
1 125 
1 126 
1 127 
1 128 
1 129 
1 130 
1 131 
1 132 
1 133 
1 134 
1 135 
1 136 
1 137 
1 138 
1 139 
1 140 
1 141 
1 142 
1 143 
1 144 
1 145 
1 146 
1 147 
1 148 
1 149 
1 150 
1 151 
1 152 
1 153 
1 154 
1 155 
1 156 
1 157 
1 158 
1 159 
1 160 
1 161 
1 162 
1 163 
1 164 
1 165 
1 166 
1 167 
1 168 
1 169 
1 170 
1 171 
1 172 
1 173 
1 174 
1 175 
1 176 
1 177 
1 178 
1 179 
1 180 
1 181 
1 182 
1 183 
1 184 
1 185 
1 186 
1 187 
1 188 
1 189 
1 190 
1 191 
1 192 
1 193 
1 194 
1 195 
1 196 
1 197 
1 198 
1 199 
1 200 
1 201 
1 202 
1 203 
1 204 
1 205 
1 206 
1 207 
1 208 
1 209 
1 210 
1 211 
1 212 
1 213 
1 214 
1 215 
1 216 
1 217 
1 218 
1 219 
1 220 
1 221 
1 222 
1 223 
1 224 
1 225 
1 226 
1 227 
1 228 
1 229 
1 230 
1 231 
1 232 
1 233 
1 234 
1 235 
1 236 
1 237 
1 238 
1 239 
1 240 
1 241 
1 242 
1 243 
1 244 
1 245 
1 246 
1 247 
1 248 
1 249 
1 250 
1 251 
1 252 
1 253 
1 254 
1 255 
1 256 
1 257 
1 258 
1 259 
1 260 
1 261 
1 262 
1 263 
1 264 
1 265 
1 266 
1 267 
1 268 
1 269 
1 270 
1 271 
1 272 
1 273 
1 274 
1 275 
1 276 
1 277 
1 278 
1 279 
1 280 
1 281 
1 282 
1 283 
1 284 
1 285 
1 286 
1 287 
1 288 
1 289 
1 290 
1 291 
1 292 
1 293 
1 294 
1 295 
1 296 
1 297 
1 298 
1 299 
1 300 
1 301 
1 302 
1 303 
1 304 
1 305 
1 306 
1 307 
1 308 
1 309 
1 310 
1 311 
1 312 
1 313 
1 314 
1 315 
1 316 
1 317 
1 318 
1 319 
1 320 
1 321 
1 322 
1 323 
1 324 
1 325 
1 326 
1 327 
1 328 
1 329 
1 330 
1 331 
1 332 
1 333 
1 334 
1 335 
1 336 
1 337 
1 338 
1 339 
1 340 
1 341 
1 342 
1 343 
1 344 
1 345 
1 346 
1 347 
1 348 
1 349 
1 350 
1 351 
1 352 
1 353 
1 354 
1 355 
1 356 
1 357 
1 358 
1 359 
1 360 
1 361 
1 362 
1 363 
1 364 
1 365 
1 366 
1 367 
1 368 
1 369 
1 370 
1 371 
1 372 
1 373 
1 374 
1 375 
1 376 
1 377 
1 378 
1 379 
1 380 
1 381 
1 382 
1 383 
1 384 
1 385 
1 386 
1 387 
1 388 
1 389 
1 390 
1 391 
1 392 
1 393 
1 394 
1 395 
1 396 
1 397 
1 398 
1 399 
1 400 
1 401 
1 402 
1 403 
1 404 
1 405 
1 406 
1 407 
1 408 
1 409 
1 410 
1 411 
1 412 
1 413 
1 414 
1 415 
1 416 
1 417 
1 418 
1 419 
1 420 
1 421 
1 422 
1 423 
1 424 
1 425 
1 426 
1 427 
1 428 
1 429 
1 430 
1 431 
1 432 
1 433 
1 434 
1 435 
1 436 
1 437 
1 438 
1 439 
1 440 
1 441 
1 442 
1 443 
1 444 
1 445 
1 446 
1 447 
1 448 
1 449 
1 450 
1 451 
1 452 
1 453 
1 454 
1 455 
1 456 
1 457 
1 458 
1 459 
1 460 
1 461 
1 462 
1 463 
1 464 
1 465 
1 466 
1 467 
1 468 
1 469 
1 470 
1 471 
1 472 
1 473 
1 474 
1 475 
1 476 
1 477 
1 478 
1 479 
1 480 
1 481 
1 482 
1 483 
1 484 
1 485 
1 486 
1 487 
1 488 
1 489 
1 490 
1 491 
1 492 
1 493 
1 494 
1 495 
1 496 
1 497 
1 498 
1 499 
1 500 
1 501 
1 502 
1 503 
1 504 
1 505 
1 506 
1 507 
1 508 
1 509 
1 510 
1 511 
1 512 
1 513 
1 514 
1 515 
1 516 
1 517 
1 518 
POINT_DATA 519 
SCALARS MeanU double 1 
LOOKUP_TABLE default
0.13174 
0.10420 
0.17939 
0.15535 
0.12821 
0.11153 
0.13217 
0.17460 
0.05538 
0.21552 
0.14527 
0.05996 
0.19118 
0.12811 
0.06667 
0.16134 
0.19881 
0.09368 
0.12294 
0.11465 
0.17301 
0.09159 
0.10217 
0.05530 
0.05503 
0.15014 
0.16863 
0.17376 
0.17292 
0.07406 
0.10556 
0.15085 
0.10210 
0.18762 
0.11591 
0.08758 
0.14454 
0.19679 
0.12400 
0.16249 
0.11187 
0.12809 
0.04403 
0.08924 
0.06777 
0.15682 
0.13399 
0.07348 
0.21983 
0.20968 
0.08169 
0.15005 
0.06639 
0.14146 
0.13047 
0.15514 
0.12107 
0.06014 
0.11402 
0.13059 
0.07473 
0.10658 
0.08449 
0.14805 
0.14957 
0.15572 
0.09795 
0.14531 
0.09011 
0.15678 
0.07107 
0.14762 
0.12954 
0.16790 
0.15959 
0.19677 
0.12365 
0.08655 
0.13285 
0.19494 
0.07663 
0.14357 
0.03643 
0.12363 
0.11758 
0.19804 
0.14192 
0.12184 
0.14531 
0.20273 
0.10636 
0.09739 
0.13648 
0.10265 
0.08500 
0.13319 
0.12482 
0.06395 
0.16287 
0.12941 
0.12561 
0.18257 
0.17548 
0.14950 
0.12959 
0.16909 
0.13244 
0.18384 
0.19783 
0.05853 
0.10930 
0.12982 
0.16447 
0.16154 
0.08261 
0.17797 
0.10327 
0.03268 
0.14753 
0.07293 
0.18310 
0.12530 
0.14199 
0.14098 
0.09439 
0.14214 
0.07590 
0.13427 
0.09499 
0.10607 
0.15510 
0.06912 
0.08030 
0.16335 
0.11107 
0.13329 
0.15165 
0.11890 
0.12363 
0.12906 
0.14186 
0.18251 
0.03947 
0.12314 
0.18387 
0.12699 
0.15208 
0.17385 
0.05937 
0.12009 
0.16967 
0.07306 
0.16249 
0.09514 
0.09632 
0.11226 
0.13981 
0.10459 
0.11166 
0.12134 
0.10958 
0.14380 
0.20655 
0.06433 
0.05003 
0.04861 
0.12305 
0.12754 
0.12592 
0.14280 
0.05231 
0.06800 
0.12899 
0.17878 
0.12366 
0.11308 
0.27594 
0.16005 
0.12526 
0.10836 
0.06794 
0.17182 
0.11075 
0.12550 
0.09447 
0.19519 
0.11070 
0.17596 
0.16324 
0.11510 
0.04981 
0.05266 
0.12759 
0.13697 
0.13479 
0.11522 
0.11297 
0.12381 
0.19250 
0.11110 
0.18112 
0.13446 
0.15305 
0.17411 
0.17247 
0.18321 
0.12633 
0.13376 
0.14596 
0.09668 
0.11924 
0.17191 
0.11478 
0.11101 
0.02016 
0.10454 
0.05092 
0.11285 
0.07251 
0.11073 
0.11219 
0.10451 
0.11120 
0.09159 
0.16470 
0.15367 
0.20769 
0.15108 
0.12067 
0.17758 
0.06141 
0.15735 
0.17689 
0.15662 
0.16861 
0.09670 
0.21398 
0.05648 
0.24159 
0.07609 
0.15815 
0.12152 
0.06374 
0.12208 
0.19584 
0.21051 
0.12833 
0.12381 
0.20695 
0.11829 
0.11661 
0.12324 
0.11484 
0.14242 
0.10099 
0.10056 
0.16737 
0.04132 
0.05925 
0.07021 
0.07508 
0.18607 
0.16795 
0.14563 
0.09901 
0.09838 
0.17077 
0.08825 
0.11991 
0.14336 
0.02709 
0.10360 
0.14515 
0.10721 
0.09842 
0.14264 
0.17093 
0.14370 
0.11497 
0.12423 
0.08013 
0.10948 
0.10294 
0.21640 
0.04539 
0.07385 
0.14534 
0.10706 
0.07365 
0.20617 
0.18337 
0.13160 
0.08957 
0.11046 
0.11176 
0.04875 
0.07645 
0.02051 
0.13834 
0.04766 
0.08059 
0.11451 
0.08181 
0.14611 
0.07544 
0.07025 
0.10600 
0.17141 
0.06132 
0.04541 
0.02357 
0.05808 
0.05157 
0.06977 
0.17285 
0.10810 
0.04609 
0.11544 
0.08294 
0.07684 
0.12105 
0.13672 
0.09788 
0.12743 
0.14363 
0.19416 
0.16429 
0.12120 
0.09890 
0.11881 
0.19368 
0.06853 
0.18640 
0.09771 
0.14056 
0.10775 
0.20828 
0.03334 
0.05958 
0.14998 
0.08210 
0.13265 
0.09610 
0.07256 
0.05477 
0.07463 
0.11683 
0.13204 
0.09865 
0.12578 
0.11620 
0.10621 
0.12757 
0.09893 
0.12468 
0.14225 
0.17508 
0.11088 
0.15917 
0.08542 
0.10648 
0.16539 
0.07639 
0.10617 
0.19002 
0.15127 
0.13155 
0.18314 
0.13085 
0.09202 
0.18027 
0.10832 
0.14417 
0.15074 
0.22006 
0.19869 
0.13347 
0.05031 
0.14499 
0.21474 
0.13593 
0.10480 
0.12295 
0.09391 
0.07653 
0.17301 
0.03129 
0.14968 
0.15547 
0.11040 
0.15107 
0.12905 
0.18428 
0.11868 
0.07143 
0.11389 
0.09618 
0.12309 
0.13445 
0.19299 
0.15155 
0.13918 
0.14854 
0.10197 
0.12283 
0.10359 
0.01327 
0.10367 
0.12622 
0.10261 
0.09285 
0.10761 
0.09190 
0.18152 
0.10692 
0.13966 
0.09931 
0.03868 
0.16532 
0.11389 
0.14005 
0.06881 
0.12263 
0.13080 
0.13365 
0.17736 
0.18358 
0.11196 
0.09528 
0.04521 
0.05730 
0.09692 
0.07603 
0.11872 
0.11871 
0.14699 
0.13514 
0.15153 
0.22186 
0.10545 
0.13845 
0.19627 
0.18515 
0.09672 
0.13088 
0.13909 
0.12933 
0.26023 
0.09369 
0.15230 
0.20135 
0.10437 
0.11836 
0.06832 
0.08202 
0.17584 
0.11243 
0.14560 
0.06185 
0.13114 
0.03780 
0.11125 
0.09844 
0.22421 
0.07118 
0.18087 
0.10314 
0.12680 
0.16803 
0.13409 
0.11521 
0.04916 
0.15384 
0.05331 
0.06277 
0.16334 
0.08526 
0.09850 
0.09278 
0.20451 
0.14509 
0.20912 
0.15116 
0.17165 
0.16823 
0.05025 
0.04634 
0.09023 
0.09517 
0.09779 
0.07506 
0.14273 
0.13366 
0.03419 
0.13539 
0.18252 
0.03551 
0.10542 
0.07263 
0.12899 
0.17065 
0.16664 
0.07594 
0.09339 
0.12002 
0.18246 
0.04969 
0.22230 
0.18444 
0.10732 
0.06742 
0.18689 
0.03996 
0.15292 
0.07193 
0.08739 
0.19602 
0.10180 
0.19768 

 VECTORS Umean float 
0.02150 0.11450 0.06150 
-0.03150 0.07800 -0.06150 
0.07050 0.13450 -0.09550 
0.07100 0.11700 -0.07350 
0.03300 0.11600 -0.04350 
-0.06450 0.07850 -0.04600 
-0.00600 0.13100 -0.01650 
0.06400 0.16150 -0.01750 
-0.01350 0.04700 -0.02600 
0.00200 0.21400 -0.02550 
0.01750 0.11650 -0.08500 
0.03850 0.01750 -0.04250 
0.03000 0.18800 -0.01750 
0.10000 0.07700 -0.02200 
0.06300 -0.00750 0.02050 
0.02450 0.11450 -0.11100 
-0.00600 0.16550 -0.11000 
-0.02700 0.08600 -0.02550 
-0.00250 0.12200 -0.01500 
0.02500 0.10200 0.04600 
0.04600 0.14350 -0.08500 
0.01500 0.05950 -0.06800 
0.06850 0.07500 -0.01100 
0.02500 0.04850 -0.00900 
0.02650 0.04550 0.01600 
0.00950 0.14850 0.02000 
0.02150 0.16300 -0.03750 
0.05200 0.13300 -0.09900 
0.15300 0.07350 0.03300 
0.06350 0.03650 -0.01100 
0.03950 0.09350 0.02900 
0.02200 0.11750 -0.09200 
0.02050 0.10000 0.00200 
0.07400 0.15800 0.06900 
-0.05300 0.09500 -0.04000 
0.04450 0.07300 0.01900 
0.06950 0.10850 -0.06550 
-0.03500 0.17400 -0.08500 
-0.01500 0.11950 -0.02950 
0.11200 0.11700 0.01300 
0.01700 0.08600 -0.06950 
0.00450 0.12800 -0.00200 
-0.01000 0.02250 -0.03650 
0.02400 0.07850 -0.03500 
0.05350 0.04050 -0.00950 
0.05000 0.14050 -0.04850 
-0.06350 0.11100 -0.04000 
-0.01700 0.07000 0.01450 
0.04450 0.21250 0.03450 
0.06800 0.19100 -0.05350 
0.00700 0.06000 0.05500 
-0.01000 0.14950 -0.00800 
-0.01200 0.05850 -0.02900 
0.05750 0.10800 0.07100 
0.00150 0.09150 -0.09300 
0.05450 0.14500 0.00850 
0.01550 0.05350 -0.10750 
0.00200 0.05750 -0.01750 
0.04400 0.08150 -0.06650 
0.07100 0.09300 -0.05800 
0.03950 0.05950 0.02200 
0.02650 0.07300 -0.07300 
0.06950 0.04700 0.01000 
0.06700 0.07450 -0.10900 
0.06950 0.12900 -0.03000 
-0.00150 0.15400 -0.02300 
0.06800 0.07050 -0.00050 
0.02800 0.13950 -0.02950 
0.00550 0.06700 -0.06000 
0.09600 0.11550 -0.04500 
-0.01400 0.06950 -0.00500 
0.05250 0.12800 -0.05150 
0.00350 0.11200 -0.06500 
-0.01450 0.15050 -0.07300 
0.00150 0.13750 -0.08100 
0.06200 0.17950 0.05150 
0.07250 0.09950 -0.01150 
0.02650 0.08200 -0.00800 
0.03350 0.12800 -0.01200 
0.15050 0.12350 0.01000 
-0.07000 0.03000 -0.00850 
0.06450 0.08450 -0.09650 
0.02200 0.00150 -0.02900 
-0.01050 0.11750 -0.03700 
0.07750 0.08300 -0.03050 
0.09600 0.14000 0.10200 
0.09050 0.08000 -0.07450 
-0.04700 0.06600 -0.09100 
0.03550 0.14000 0.01600 
0.12300 0.16050 0.01450 
0.02050 0.09700 0.03850 
0.00400 0.09000 -0.03700 
0.07800 0.09550 -0.05850 
0.02550 0.09750 -0.01950 
0.02500 0.07550 0.03000 
0.00650 0.11550 -0.06600 
0.04400 0.10800 -0.04450 
0.03700 0.04400 -0.02800 
0.03100 0.14200 -0.07350 
0.10150 0.07200 -0.03550 
0.02000 0.12400 0.00150 
0.01750 0.12750 -0.12950 
0.02600 0.15400 -0.08000 
0.03300 0.13400 -0.05750 
-0.10300 0.02200 -0.07550 
0.01850 0.15950 0.05300 
0.07300 0.11050 0.00150 
0.06750 0.17000 -0.01850 
0.06700 0.10000 -0.15700 
-0.00350 0.05100 -0.02850 
0.09200 0.00100 -0.05900 
-0.04550 0.07950 -0.09200 
0.05750 0.13650 -0.07150 
0.07650 0.11800 -0.07950 
0.04800 0.05250 -0.04200 
0.02800 0.09400 -0.14850 
-0.00150 0.10100 -0.02150 
0.02500 0.00150 0.02100 
-0.00750 0.12500 -0.07800 
0.00150 0.06850 -0.02500 
0.00850 0.14100 0.11650 
0.03500 0.11950 0.01400 
-0.00950 0.09400 -0.10600 
0.08300 0.02100 -0.11200 
0.06700 0.03250 -0.05800 
0.00050 0.07850 -0.11850 
0.02000 0.06100 0.04050 
0.03350 0.10050 -0.08250 
0.00800 0.08300 0.04550 
0.01700 0.09850 -0.03550 
0.00900 0.14800 0.04550 
0.06650 0.01000 -0.01600 
-0.02350 0.07550 -0.01400 
0.03550 0.14150 0.07350 
-0.07100 0.05600 -0.06450 
0.10150 0.07150 0.04850 
0.04050 0.10750 -0.09900 
0.00050 0.09500 0.07150 
-0.04500 0.08650 -0.07600 
0.05250 0.04950 0.10700 
0.06700 0.12300 0.02250 
0.02050 0.08250 -0.16150 
0.01350 0.03700 0.00250 
-0.00950 0.11500 -0.04300 
-0.00200 0.14100 -0.11800 
0.06200 0.05950 -0.09350 
0.05300 0.14250 -0.00350 
0.08850 0.12800 -0.07750 
0.02700 0.05150 -0.01200 
-0.02450 0.11700 -0.01150 
0.08250 0.13200 -0.06750 
0.04500 0.03100 -0.04850 
0.10400 0.10750 -0.06350 
-0.02000 0.09000 -0.02350 
0.05450 0.07450 -0.02750 
0.06150 0.07950 -0.05000 
0.06100 0.07950 -0.09750 
-0.07200 0.04300 -0.06250 
0.06250 0.08950 -0.02350 
0.08400 0.07600 0.04350 
0.04200 0.05000 -0.08800 
0.08550 0.08300 -0.08050 
0.13800 0.00750 -0.15350 
0.03300 0.04500 -0.03200 
0.02450 0.03950 -0.01850 
-0.02200 0.04250 -0.00850 
0.01800 0.11250 -0.04650 
-0.00500 0.12050 -0.04150 
0.04750 0.10800 0.04400 
0.05950 0.11350 -0.06300 
0.01200 0.04850 -0.01550 
-0.02650 0.04900 -0.03900 
0.01450 0.12600 -0.02350 
0.07700 0.15450 0.04650 
0.00050 0.12150 -0.02300 
0.07750 0.08000 -0.01950 
0.17150 0.04700 -0.21100 
0.02400 0.13050 -0.08950 
0.03300 0.09850 0.07000 
0.00700 0.04350 -0.09900 
0.01050 0.05900 -0.03200 
0.00950 0.10650 -0.13450 
0.09200 0.06100 0.00900 
0.06650 0.06600 0.08350 
0.00650 0.08900 -0.03100 
-0.09400 0.02950 -0.16850 
0.05700 0.05750 0.07550 
0.11300 0.06350 -0.11900 
0.04000 0.15400 -0.03650 
0.05450 0.05750 0.08350 
0.01900 0.03450 -0.03050 
0.04500 0.02350 -0.01400 
0.04150 0.12050 -0.00600 
0.12850 0.04600 0.01150 
-0.02700 0.11350 -0.06750 
0.05000 0.09600 0.03950 
0.00300 0.05150 -0.10050 
0.08150 0.08950 0.02600 
0.10100 0.15250 -0.06000 
0.00400 0.10150 0.04500 
0.08350 0.16050 -0.00850 
0.05500 0.11650 0.03850 
0.10800 0.10100 0.03950 
0.06250 0.03800 -0.15800 
0.05000 0.14150 -0.08500 
0.12000 0.12250 -0.06450 
-0.04200 0.09050 -0.07750 
0.06300 0.07450 -0.09150 
0.12300 0.06850 -0.03850 
0.05050 0.08200 -0.00850 
0.01100 0.06400 -0.10000 
0.12600 0.05250 -0.10450 
0.01850 0.10950 -0.02900 
0.05200 0.09400 0.02800 
-0.00800 0.00600 -0.01750 
0.02650 0.09450 -0.03600 
-0.00900 0.04750 0.01600 
0.02450 0.11000 -0.00600 
0.02200 0.06900 0.00350 
-0.04900 0.08300 -0.05450 
0.01000 0.10750 0.03050 
0.03200 0.09350 0.03400 
-0.01450 0.10650 -0.02850 
0.06750 0.05000 0.03650 
0.11900 0.11050 -0.02750 
0.04700 0.08000 -0.12250 
0.10200 0.17050 -0.06050 
0.03800 0.11200 -0.09400 
0.03300 0.07850 -0.08550 
0.08900 0.13150 -0.07950 
0.04300 0.04350 -0.00550 
0.04300 0.10450 -0.10950 
0.10150 0.12600 -0.07150 
0.02750 0.15350 0.01450 
0.10850 0.11150 0.06500 
0.00450 0.07100 -0.06550 
0.03000 0.20600 0.04950 
-0.04550 -0.00550 -0.03300 
0.06550 0.15650 -0.17200 
-0.02700 0.03000 -0.06450 
0.09550 0.08400 -0.09400 
0.00100 0.12150 0.00200 
0.02650 0.05600 0.01500 
-0.02400 0.02750 -0.11650 
0.10750 0.14750 -0.07100 
0.14150 0.07050 -0.13900 
0.06550 0.05700 -0.09450 
0.01500 0.07350 -0.09850 
0.14600 0.14550 0.01850 
-0.00450 0.10300 -0.05800 
-0.00850 0.11400 -0.02300 
0.04100 0.09600 -0.06550 
0.01500 0.11200 0.02050 
0.08300 0.11150 0.03100 
0.04350 0.09100 0.00500 
-0.03150 0.00050 -0.09550 
0.08650 0.10500 -0.09750 
0.03700 0.01300 0.01300 
-0.00150 0.05800 -0.01200 
0.04150 0.04950 0.02750 
0.01650 0.07100 0.01800 
0.13850 0.12400 0.00800 
0.00200 0.14950 -0.07650 
0.08400 0.11550 0.02850 
-0.05150 0.04000 -0.07450 
-0.00900 0.04600 -0.08650 
0.08500 0.14450 -0.03250 
0.04200 0.07550 0.01800 
-0.04600 0.09750 0.05250 
0.04850 0.04950 0.12550 
0.02300 0.00600 0.01300 
0.05700 0.08150 -0.02900 
-0.04300 0.13850 -0.00600 
0.02600 0.08700 -0.05700 
-0.00950 0.09750 0.00950 
-0.05100 0.13300 0.00750 
0.09900 0.03450 -0.13500 
0.05400 0.08850 -0.09950 
-0.01100 0.11250 0.02100 
0.00100 0.05050 -0.11350 
0.02450 -0.01100 -0.07550 
0.02700 0.10400 0.02100 
0.04050 0.05900 -0.07400 
0.11350 0.17350 -0.06200 
0.02050 0.03800 -0.01400 
-0.04500 -0.00250 -0.05850 
0.03000 0.12350 -0.07050 
0.00750 0.03000 -0.10250 
0.01250 0.07250 -0.00350 
0.06650 0.15350 -0.12050 
0.06650 0.15100 -0.08000 
0.04050 0.07400 -0.10100 
-0.02500 0.00150 -0.08600 
0.05500 0.08750 -0.03900 
0.07800 0.06750 -0.04300 
0.02950 0.03600 -0.01450 
0.07250 -0.00350 0.02400 
0.00850 -0.00250 0.01850 
0.07150 0.11250 -0.03700 
0.03250 0.00500 -0.03450 
0.00200 0.07050 -0.03900 
-0.06150 0.04300 -0.08650 
-0.00450 0.05650 0.05900 
0.09200 0.11350 0.00150 
0.03650 0.06150 -0.02400 
0.03000 0.06350 0.00150 
0.03050 0.09800 -0.02650 
0.12550 0.10550 -0.05000 
0.00550 0.02550 -0.05550 
0.02150 0.03800 0.01250 
0.01450 0.01700 -0.00750 
0.02050 0.04900 0.02350 
0.02400 0.03350 0.03100 
-0.04400 0.00400 -0.05400 
0.07950 0.10050 -0.11600 
-0.03500 0.01900 -0.10050 
0.01800 -0.01550 -0.03950 
0.02350 0.09450 -0.06200 
0.03250 0.01650 -0.07450 
0.03000 0.05800 -0.04050 
0.07100 0.02950 -0.09350 
0.02300 0.13450 0.00850 
0.02600 0.09300 0.01600 
0.12350 0.03050 -0.00750 
0.02250 0.12900 0.05900 
0.06350 0.17950 -0.03800 
0.09050 0.11100 -0.08050 
0.10800 0.02400 0.04950 
0.08950 0.00700 -0.04150 
0.08200 0.06650 -0.05450 
0.04100 0.05700 -0.18050 
0.06850 0.00200 0.00050 