# vtk DataFile Version 2.0 
Xm, Ym, Zm, Uvecs, timestep 10072 
ASCII 
 
DATASET POLYDATA POINTS 502 float 
  1.858  -2.995 -72.973 
 -6.207   6.218 -71.436 
 -9.125   2.597 -73.492 
 -7.800   2.397 -71.588 
  3.920   8.929 -72.438 
 -3.030  -8.307 -73.703 
 -4.240   6.771 -70.704 
  4.108   3.409 -67.784 
 -8.182  -3.621 -71.906 
  8.907   1.534 -70.385 
 -3.742  10.116 -71.726 
  8.204  -2.212 -72.590 
  8.218   0.183 -69.526 
  2.471   6.766 -73.505 
  1.519   4.082 -71.051 
 -7.430  -4.155 -77.780 
  1.558  11.264 -70.017 
 -2.056  -0.625 -70.757 
-10.465   2.949 -71.874 
 -3.776  -2.133 -69.897 
  9.777  -2.541 -71.085 
  2.896  -4.678 -73.954 
-10.761  -4.032 -70.836 
  4.301   8.348 -67.978 
 -5.875   5.871 -68.482 
-10.117   3.742 -70.036 
 -8.161   9.817 -70.148 
 -6.723  -9.677 -70.506 
  4.652  -1.103 -66.156 
 -2.604   2.192 -65.871 
 -0.788   2.213 -68.312 
-11.807   0.964 -72.198 
 -0.365  10.683 -64.596 
 -1.479  11.586 -66.530 
 -3.755  11.128 -72.222 
  4.123   9.698 -72.423 
  3.428  -2.928 -68.192 
 -3.167   5.374 -72.149 
-10.508   5.330 -66.799 
 -2.168   4.006 -69.868 
 -6.765  -1.631 -68.168 
  8.645   7.280 -69.283 
  1.399   9.969 -70.757 
  3.542   2.524 -69.666 
 -1.416   7.883 -72.631 
  1.316  -3.196 -73.494 
  1.650   3.597 -70.971 
  8.001   6.776 -71.507 
  5.238  -3.370 -69.197 
 12.120   2.889 -68.786 
-10.102  -0.786 -62.463 
 -4.107   2.805 -69.093 
 -8.273  -5.630 -67.957 
 -5.187  -2.154 -67.575 
  4.223  10.396 -65.281 
 -7.470   4.373 -70.098 
 -3.291   6.725 -65.629 
  3.821   7.112 -65.308 
  7.958   7.563 -72.330 
  8.981  -1.656 -73.183 
  2.333   4.733 -64.465 
  1.218   2.024 -70.076 
  7.955  -5.749 -66.941 
 -8.538   7.508 -64.311 
-14.115  -1.100 -68.619 
 -6.184  -6.303 -69.578 
  8.124   6.146 -67.649 
 -6.357  -7.719 -69.466 
 -3.588  -9.058 -68.758 
 -3.045  10.874 -65.732 
  1.832   8.730 -62.720 
 15.979   9.341 -72.736 
  6.639  -2.038 -67.002 
-15.726   0.790 -72.075 
 -8.716   8.971 -64.016 
  1.918   8.181 -68.299 
 -4.670   1.830 -68.014 
 -6.585   0.723 -71.588 
 -0.986  -1.916 -64.130 
 -5.296  -2.774 -67.055 
 -4.556 -10.495 -69.150 
-14.488  -7.542 -70.225 
  3.502  -8.421 -66.092 
  0.618 -11.857 -68.080 
  7.361  10.816 -71.156 
-14.474 -10.879 -73.333 
  1.781  -6.607 -64.672 
 -7.577  -1.126 -67.088 
-12.828   9.679 -70.990 
 -8.149   6.383 -71.387 
  6.795  -1.215 -66.333 
-10.426  -5.465 -69.116 
 -0.136  -0.102 -66.926 
 -8.631  10.408 -68.877 
  0.944 -10.120 -66.687 
-10.974   2.910 -71.809 
  1.453   2.440 -66.066 
 -1.260   9.948 -74.215 
 12.137   3.138 -73.005 
 -7.206  11.990 -67.072 
  0.354   5.010 -61.109 
  4.268   6.146 -61.103 
  8.129  -1.163 -69.847 
 -3.886  11.218 -69.989 
  8.730 -12.454 -69.147 
  9.061  -4.165 -66.784 
 -6.704  12.113 -64.023 
  6.119   4.649 -71.352 
 -7.287  11.813 -71.329 
  6.679  -8.607 -63.776 
-12.941  12.162 -72.781 
 -2.506   0.188 -74.873 
 -1.549  -9.029 -71.511 
  8.902  10.396 -67.785 
 11.969   6.070 -67.778 
 -7.463   0.697 -65.779 
 12.115  -0.215 -73.165 
  0.332   7.409 -66.203 
 -7.250 -11.295 -68.324 
 13.627  -6.922 -67.609 
 -0.773   8.663 -72.904 
 -4.703  -2.137 -71.776 
 12.192   3.290 -65.160 
  4.771  -0.598 -74.070 
-14.305   8.365 -76.876 
  5.313   6.039 -63.203 
 -5.851  10.946 -72.561 
 -3.559  -1.036 -69.697 
 -9.689  -6.073 -74.399 
-10.793   9.639 -63.326 
  2.949   9.235 -65.352 
 -5.313 -11.081 -72.153 
 14.410   2.644 -72.594 
  4.879  -3.865 -70.120 
  9.448  -5.184 -74.052 
 -8.213  -0.839 -66.428 
-14.079   7.881 -70.709 
-11.373   2.109 -68.834 
  5.919   7.773 -70.293 
-14.390  -9.846 -77.757 
 14.253   0.899 -71.143 
 -0.580  -6.277 -63.698 
 10.323   8.523 -64.057 
  3.037  10.070 -72.236 
 -8.230   2.774 -61.201 
 -6.383  -1.994 -62.079 
  4.369  -5.874 -64.397 
 10.770  -4.531 -65.321 
-11.556   5.521 -66.281 
  3.774  -1.288 -62.526 
-12.686   2.077 -63.723 
 14.328  -0.433 -71.029 
  0.330  -0.074 -63.694 
-12.176  13.124 -65.015 
  4.116   0.073 -67.115 
  9.611  -5.987 -70.586 
-10.393  -6.284 -72.476 
  3.410 -12.151 -69.264 
  7.478   8.839 -72.829 
  8.860  -9.186 -65.012 
 12.216  -3.163 -68.903 
 -9.643   9.646 -65.273 
 -2.242 -10.108 -64.174 
 14.038  -1.660 -71.570 
 -6.603  -0.201 -65.406 
 -1.640  10.669 -68.659 
  5.564   3.170 -70.327 
  1.926  -0.724 -68.439 
-10.164  11.320 -67.637 
-14.884  -9.396 -73.323 
 -8.581  11.773 -64.195 
 -4.089   9.216 -67.189 
 -4.782   6.130 -63.400 
  4.617  -7.414 -65.627 
 -5.896 -10.134 -72.173 
 -6.893  -8.765 -74.446 
  2.678  11.221 -73.076 
 15.630  -3.166 -72.844 
-11.636   7.728 -68.962 
  2.713 -12.491 -66.513 
-13.912  -4.790 -68.804 
 13.919  -4.367 -72.704 
 -8.335   1.219 -67.240 
 -3.624  11.721 -65.332 
 -0.541 -12.040 -73.828 
 -2.100  -6.831 -64.106 
 -5.815  -3.636 -67.223 
 10.339  -8.479 -68.869 
  6.498  -8.912 -71.966 
 10.012   6.389 -62.910 
  8.983   8.450 -70.330 
 14.908   9.752 -72.577 
  1.049  -1.469 -75.648 
-12.420   6.891 -72.563 
 10.435  -3.144 -64.220 
 -6.338   5.603 -68.490 
  3.734   7.542 -66.471 
 11.384  -2.917 -72.608 
 -7.205   5.338 -62.110 
 14.746  -7.709 -72.374 
 -1.365 -10.529 -65.404 
 14.704  -0.684 -65.463 
  7.760  -9.968 -64.815 
 -3.415   5.134 -67.456 
  6.255   2.434 -74.825 
 12.309  -3.150 -71.749 
  3.415  -5.317 -69.275 
-12.363  10.647 -65.303 
  8.584 -12.093 -64.568 
 11.288   9.777 -69.673 
 15.800   5.844 -67.984 
 11.707   0.895 -77.120 
  4.591  -8.006 -63.816 
-13.017   4.707 -68.233 
  2.891  -9.734 -65.147 
  5.542  -2.193 -73.434 
 -9.200  -4.708 -65.037 
  4.328  10.454 -76.747 
 -8.698   9.294 -74.674 
  7.576 -12.345 -70.032 
  9.085   9.893 -73.035 
 -3.010  -1.845 -64.185 
 17.922   3.076 -70.892 
 14.755  10.730 -68.485 
-11.825  -4.441 -77.251 
  5.570  12.157 -72.267 
  8.892   5.750 -65.310 
-15.926  -3.787 -72.287 
-11.871  -1.764 -73.827 
  0.020 -12.918 -66.672 
-12.203  12.038 -66.153 
 18.025   4.373 -68.857 
  0.057  -2.512 -70.512 
 12.365   6.002 -66.975 
-12.270   3.427 -67.766 
  7.489  -4.257 -69.935 
  3.660   0.777 -63.548 
-11.483   0.604 -73.084 
 15.801   8.537 -69.471 
-10.688  -9.349 -73.470 
  6.085   4.985 -65.465 
 13.378   1.586 -72.935 
 -4.360  12.215 -63.501 
 15.447  -3.773 -72.952 
  6.287   7.108 -75.022 
  3.506  10.343 -72.049 
  0.169  -3.447 -65.495 
 -2.003  -7.361 -76.353 
 -1.720  -5.707 -65.802 
-15.547  -8.021 -73.839 
  5.465 -10.820 -65.076 
-12.937  -3.452 -69.197 
  9.572 -10.718 -67.482 
-11.232  10.370 -65.250 
  5.569 -10.284 -68.319 
 11.043   9.383 -64.240 
  0.302   8.672 -64.660 
 -7.034  -5.776 -65.352 
  0.685  -2.603 -73.593 
 15.945   1.607 -71.705 
 -8.936   8.572 -74.752 
-14.470   9.742 -67.713 
 13.272  -2.282 -74.728 
 15.890  -2.470 -66.803 
 15.105   6.814 -64.822 
 -5.157   1.730 -62.901 
 13.256   9.638 -71.609 
 14.547   1.312 -66.992 
  4.870  -0.098 -64.399 
 -7.055   5.425 -69.691 
-13.683  -0.315 -70.324 
 14.009  -3.840 -74.436 
 -1.265   8.227 -68.347 
 12.922  -2.409 -66.399 
 11.590   7.524 -66.005 
  8.160  -6.791 -65.501 
-14.756   4.473 -69.380 
 -7.137  -4.096 -67.643 
-14.015   2.881 -74.095 
-15.806 -11.540 -75.511 
 -8.224  12.602 -67.329 
 -5.317   0.236 -62.767 
 -8.864   0.087 -77.787 
  6.684  -9.538 -71.334 
 12.592   8.859 -66.163 
  8.387   2.901 -70.091 
 -4.119  -7.633 -65.975 
 15.284   9.442 -65.513 
 11.621   4.103 -63.192 
  5.731  10.687 -71.467 
  3.691  -3.801 -67.847 
 10.921   1.450 -66.427 
  7.473  -0.481 -61.202 
 15.208   8.874 -65.292 
 -2.529  -5.775 -68.100 
  9.388   6.409 -64.382 
-11.303  10.061 -69.696 
 16.102  11.075 -66.791 
 10.899   5.662 -64.067 
-10.360   6.830 -63.754 
  6.806  -6.933 -67.900 
 16.520 -11.086 -72.600 
 -8.651   5.331 -69.454 
  4.854  12.821 -66.946 
 -1.748  -3.133 -71.631 
 -8.658   6.976 -73.359 
 -2.434  -1.722 -70.717 
-14.368  -6.171 -76.669 
 -5.953   9.041 -74.274 
 -2.894  -3.732 -73.744 
  7.844  -0.586 -68.913 
  1.535   1.156 -71.294 
 -8.709   9.521 -63.482 
 -0.200   4.353 -74.218 
 -0.134  -0.670 -60.895 
 -2.722   3.936 -66.148 
 -1.216 -12.569 -70.045 
-13.932  10.151 -74.029 
  4.941  -8.521 -66.423 
  6.435  -1.664 -72.857 
 -3.326   2.773 -73.094 
  8.154 -11.833 -66.118 
 -2.525   7.361 -65.761 
-11.386  -1.480 -65.862 
  6.409  10.139 -59.572 
  0.350  -6.499 -70.042 
 -9.528   3.021 -67.848 
  0.969  -6.245 -69.644 
  7.891   6.344 -66.484 
  6.968  11.871 -72.856 
-12.087   0.621 -67.558 
 -7.322  -4.864 -68.451 
 -2.603 -12.523 -63.463 
  9.656   3.363 -65.109 
 -5.071  -9.312 -66.774 
  7.978  10.940 -72.691 
  1.511  -2.409 -68.125 
 -0.018   3.644 -66.164 
 -6.049 -10.474 -64.004 
  2.370  -4.289 -61.938 
  8.005 -11.871 -61.282 
 15.667  -5.476 -72.119 
 -0.754 -11.926 -68.304 
 -2.594  -3.653 -70.910 
-15.421   6.909 -74.282 
  3.002  11.055 -65.929 
 -4.281  -4.409 -60.206 
  9.018   2.502 -67.632 
 -1.055   4.926 -59.858 
 -3.136  -9.176 -67.407 
  8.718  -2.948 -65.232 
 -1.531   0.349 -68.504 
 16.145  10.836 -72.263 
 11.770   6.360 -75.563 
  7.546  -6.920 -62.310 
-12.026  -3.873 -63.692 
 -4.260   4.976 -69.522 
 -4.298   3.508 -66.691 
 14.346  -9.313 -64.805 
 -8.744   7.490 -67.267 
 -1.410   1.656 -74.504 
 15.913  -9.610 -71.131 
 -8.777  -9.535 -59.645 
 -2.551  -7.886 -68.101 
  2.992   2.685 -60.468 
 -5.946  -5.518 -66.576 
  9.091  -2.143 -77.201 
  5.316 -11.865 -65.755 
 -9.047  -1.687 -66.526 
  8.123  10.030 -62.203 
 -0.409  -3.164 -64.831 
-10.495  -9.563 -61.320 
 -2.256   4.404 -72.185 
 12.343   9.809 -64.903 
  3.694   3.193 -64.560 
 -7.366  -1.572 -63.894 
-13.215   2.176 -77.288 
-15.236   8.438 -76.130 
-13.583  12.596 -66.910 
  6.680  -8.111 -64.684 
-10.904  -0.857 -62.605 
 18.046  -4.418 -68.198 
 10.582  -4.428 -61.969 
 16.733 -10.111 -68.881 
 -4.063  -9.046 -61.692 
-10.240  -2.773 -60.916 
-14.611  -2.370 -67.312 
 -6.617  -9.082 -76.304 
  2.208  11.961 -60.912 
 -7.407  -6.117 -72.071 
  4.421   4.185 -60.786 
 18.791   5.624 -72.112 
 12.487 -10.614 -65.272 
 12.208 -12.746 -64.521 
 10.506 -10.705 -71.237 
 12.149  -6.956 -65.190 
-10.721 -10.919 -69.226 
 -4.443   3.327 -57.555 
  4.960  -4.879 -63.555 
-15.110  -6.876 -73.510 
  6.907  -2.827 -71.852 
 -4.898 -12.018 -68.643 
 -3.490  -0.948 -73.944 
-11.439  -5.910 -63.723 
 -9.214   4.768 -58.107 
 -9.939   3.078 -75.297 
 -9.304   7.575 -66.252 
 -9.472   8.035 -64.424 
 -0.964   1.385 -64.742 
 11.541  -4.607 -65.609 
 12.736  -6.110 -68.401 
 17.602   9.749 -69.034 
  4.294   3.664 -68.938 
  5.381   5.800 -66.248 
 15.590   5.002 -71.531 
 12.563 -12.759 -67.208 
 -8.508  -9.778 -61.774 
 -9.095   5.774 -73.796 
  0.682   8.591 -72.767 
  5.921 -13.028 -69.944 
-14.634  -2.744 -66.904 
 14.661  -6.396 -68.833 
 -9.102   3.183 -66.014 
 -8.043  -2.179 -59.033 
-12.607  -0.030 -71.825 
 13.474   4.651 -73.675 
  8.677 -12.628 -61.225 
 14.356  -5.018 -65.758 
-14.491   8.376 -72.123 
 -4.484  -3.825 -63.459 
  8.600   2.540 -61.959 
 11.449   0.965 -60.093 
 10.689  -0.302 -65.869 
 10.273  10.524 -63.680 
  0.867 -12.077 -76.206 
  8.541  -5.226 -74.082 
  5.890  -7.950 -68.656 
 11.678 -13.255 -70.958 
  7.912   8.005 -62.588 
 12.163 -13.325 -64.318 
 14.063  11.132 -61.701 
 15.578 -12.200 -68.477 
 -3.922  -8.746 -73.177 
 -3.306  -1.765 -64.941 
  4.196  -8.195 -73.947 
 17.238  -6.956 -75.316 
-13.436   4.835 -64.274 
  8.843   4.585 -67.366 
-14.594  -8.814 -72.233 
 10.100  10.292 -75.177 
 12.964  10.551 -67.498 
-14.198  -3.121 -66.532 
 -9.667  -5.867 -59.891 
 -5.559   3.806 -62.474 
 17.151  -5.162 -71.907 
 -4.844   1.510 -73.373 
  5.964  -0.699 -66.361 
 -5.528   8.401 -77.291 
 12.299   4.838 -74.886 
 -5.990   2.568 -66.467 
 14.464  -1.340 -65.017 
 16.755   8.705 -71.469 
  0.742   7.018 -66.392 
-12.719   1.442 -78.198 
-13.997   4.509 -71.376 
 11.744   1.243 -63.804 
 16.473 -12.556 -68.280 
 12.410  -5.503 -74.261 
 11.259  -6.680 -71.071 
-13.854 -11.352 -74.239 
 17.733   3.968 -71.359 
-13.698   7.569 -74.775 
 -8.273  11.802 -76.478 
 15.468   8.180 -62.864 
 15.913 -10.144 -67.883 
 -5.402  10.745 -70.122 
  0.300 -12.009 -65.692 
  4.030   2.024 -67.840 
 -2.727   8.561 -68.019 
 -4.360  12.903 -70.712 
  9.182  -2.289 -71.425 
 -5.130   1.982 -64.297 
 -5.172  -1.725 -75.278 
 11.418  11.249 -74.424 
  4.859  11.629 -72.737 
 15.651  11.576 -72.862 
 -5.236 -10.343 -71.526 
 -7.720   7.886 -75.127 
-10.754  -7.899 -70.160 
  4.246  -4.078 -67.555 
  1.224   4.604 -72.483 
-12.848 -10.211 -70.239 
 10.392   2.839 -76.531 
 -5.799  -9.519 -67.160 
 16.781  11.708 -68.160 
 -2.511  -0.748 -68.563 
 -5.176  -1.781 -69.576 
 14.342  -3.099 -75.300 
  6.496  -6.533 -71.703 
 -6.154   8.264 -63.683 
 15.046  12.114 -71.648 
 -9.161  -9.832 -67.695 

 VERTICES 502 1004 
1 0 
1 1 
1 2 
1 3 
1 4 
1 5 
1 6 
1 7 
1 8 
1 9 
1 10 
1 11 
1 12 
1 13 
1 14 
1 15 
1 16 
1 17 
1 18 
1 19 
1 20 
1 21 
1 22 
1 23 
1 24 
1 25 
1 26 
1 27 
1 28 
1 29 
1 30 
1 31 
1 32 
1 33 
1 34 
1 35 
1 36 
1 37 
1 38 
1 39 
1 40 
1 41 
1 42 
1 43 
1 44 
1 45 
1 46 
1 47 
1 48 
1 49 
1 50 
1 51 
1 52 
1 53 
1 54 
1 55 
1 56 
1 57 
1 58 
1 59 
1 60 
1 61 
1 62 
1 63 
1 64 
1 65 
1 66 
1 67 
1 68 
1 69 
1 70 
1 71 
1 72 
1 73 
1 74 
1 75 
1 76 
1 77 
1 78 
1 79 
1 80 
1 81 
1 82 
1 83 
1 84 
1 85 
1 86 
1 87 
1 88 
1 89 
1 90 
1 91 
1 92 
1 93 
1 94 
1 95 
1 96 
1 97 
1 98 
1 99 
1 100 
1 101 
1 102 
1 103 
1 104 
1 105 
1 106 
1 107 
1 108 
1 109 
1 110 
1 111 
1 112 
1 113 
1 114 
1 115 
1 116 
1 117 
1 118 
1 119 
1 120 
1 121 
1 122 
1 123 
1 124 
1 125 
1 126 
1 127 
1 128 
1 129 
1 130 
1 131 
1 132 
1 133 
1 134 
1 135 
1 136 
1 137 
1 138 
1 139 
1 140 
1 141 
1 142 
1 143 
1 144 
1 145 
1 146 
1 147 
1 148 
1 149 
1 150 
1 151 
1 152 
1 153 
1 154 
1 155 
1 156 
1 157 
1 158 
1 159 
1 160 
1 161 
1 162 
1 163 
1 164 
1 165 
1 166 
1 167 
1 168 
1 169 
1 170 
1 171 
1 172 
1 173 
1 174 
1 175 
1 176 
1 177 
1 178 
1 179 
1 180 
1 181 
1 182 
1 183 
1 184 
1 185 
1 186 
1 187 
1 188 
1 189 
1 190 
1 191 
1 192 
1 193 
1 194 
1 195 
1 196 
1 197 
1 198 
1 199 
1 200 
1 201 
1 202 
1 203 
1 204 
1 205 
1 206 
1 207 
1 208 
1 209 
1 210 
1 211 
1 212 
1 213 
1 214 
1 215 
1 216 
1 217 
1 218 
1 219 
1 220 
1 221 
1 222 
1 223 
1 224 
1 225 
1 226 
1 227 
1 228 
1 229 
1 230 
1 231 
1 232 
1 233 
1 234 
1 235 
1 236 
1 237 
1 238 
1 239 
1 240 
1 241 
1 242 
1 243 
1 244 
1 245 
1 246 
1 247 
1 248 
1 249 
1 250 
1 251 
1 252 
1 253 
1 254 
1 255 
1 256 
1 257 
1 258 
1 259 
1 260 
1 261 
1 262 
1 263 
1 264 
1 265 
1 266 
1 267 
1 268 
1 269 
1 270 
1 271 
1 272 
1 273 
1 274 
1 275 
1 276 
1 277 
1 278 
1 279 
1 280 
1 281 
1 282 
1 283 
1 284 
1 285 
1 286 
1 287 
1 288 
1 289 
1 290 
1 291 
1 292 
1 293 
1 294 
1 295 
1 296 
1 297 
1 298 
1 299 
1 300 
1 301 
1 302 
1 303 
1 304 
1 305 
1 306 
1 307 
1 308 
1 309 
1 310 
1 311 
1 312 
1 313 
1 314 
1 315 
1 316 
1 317 
1 318 
1 319 
1 320 
1 321 
1 322 
1 323 
1 324 
1 325 
1 326 
1 327 
1 328 
1 329 
1 330 
1 331 
1 332 
1 333 
1 334 
1 335 
1 336 
1 337 
1 338 
1 339 
1 340 
1 341 
1 342 
1 343 
1 344 
1 345 
1 346 
1 347 
1 348 
1 349 
1 350 
1 351 
1 352 
1 353 
1 354 
1 355 
1 356 
1 357 
1 358 
1 359 
1 360 
1 361 
1 362 
1 363 
1 364 
1 365 
1 366 
1 367 
1 368 
1 369 
1 370 
1 371 
1 372 
1 373 
1 374 
1 375 
1 376 
1 377 
1 378 
1 379 
1 380 
1 381 
1 382 
1 383 
1 384 
1 385 
1 386 
1 387 
1 388 
1 389 
1 390 
1 391 
1 392 
1 393 
1 394 
1 395 
1 396 
1 397 
1 398 
1 399 
1 400 
1 401 
1 402 
1 403 
1 404 
1 405 
1 406 
1 407 
1 408 
1 409 
1 410 
1 411 
1 412 
1 413 
1 414 
1 415 
1 416 
1 417 
1 418 
1 419 
1 420 
1 421 
1 422 
1 423 
1 424 
1 425 
1 426 
1 427 
1 428 
1 429 
1 430 
1 431 
1 432 
1 433 
1 434 
1 435 
1 436 
1 437 
1 438 
1 439 
1 440 
1 441 
1 442 
1 443 
1 444 
1 445 
1 446 
1 447 
1 448 
1 449 
1 450 
1 451 
1 452 
1 453 
1 454 
1 455 
1 456 
1 457 
1 458 
1 459 
1 460 
1 461 
1 462 
1 463 
1 464 
1 465 
1 466 
1 467 
1 468 
1 469 
1 470 
1 471 
1 472 
1 473 
1 474 
1 475 
1 476 
1 477 
1 478 
1 479 
1 480 
1 481 
1 482 
1 483 
1 484 
1 485 
1 486 
1 487 
1 488 
1 489 
1 490 
1 491 
1 492 
1 493 
1 494 
1 495 
1 496 
1 497 
1 498 
1 499 
1 500 
1 501 
POINT_DATA 502 
SCALARS MeanU double 1 
LOOKUP_TABLE default
0.08001 
0.05344 
0.05288 
0.04293 
0.08369 
0.16520 
0.05642 
0.12239 
0.09356 
0.16253 
0.10136 
0.08652 
0.14909 
0.10088 
0.16201 
0.08349 
0.07633 
0.13624 
0.06608 
0.09882 
0.08626 
0.09510 
0.10337 
0.12140 
0.09956 
0.08474 
0.10956 
0.15276 
0.17064 
0.19717 
0.15747 
0.09340 
0.11636 
0.14117 
0.11110 
0.08092 
0.13638 
0.05167 
0.16369 
0.12530 
0.19424 
0.05728 
0.10222 
0.16545 
0.09723 
0.06529 
0.16732 
0.10325 
0.24719 
0.09608 
0.11861 
0.07087 
0.11193 
0.12287 
0.16588 
0.14308 
0.17586 
0.19179 
0.14409 
0.05072 
0.17575 
0.12791 
0.11129 
0.11020 
0.13862 
0.13124 
0.14104 
0.18574 
0.17024 
0.16761 
0.21635 
0.13443 
0.18974 
0.14371 
0.12628 
0.14259 
0.11835 
0.05314 
0.20483 
0.12068 
0.10637 
0.14991 
0.20530 
0.14440 
0.10129 
0.15232 
0.21270 
0.12916 
0.06314 
0.09383 
0.20403 
0.10985 
0.16388 
0.10393 
0.22265 
0.06654 
0.15042 
0.09353 
0.11358 
0.12959 
0.21692 
0.17315 
0.19322 
0.12209 
0.07881 
0.07190 
0.09393 
0.06416 
0.10838 
0.06525 
0.02739 
0.09024 
0.10522 
0.06679 
0.06521 
0.11210 
0.03894 
0.13416 
0.09689 
0.05969 
0.11567 
0.17140 
0.13590 
0.10471 
0.02468 
0.19939 
0.09848 
0.10358 
0.10939 
0.12599 
0.20302 
0.11830 
0.09432 
0.17809 
0.08681 
0.16300 
0.06880 
0.13310 
0.10494 
0.15885 
0.08530 
0.17202 
0.09200 
0.09481 
0.17095 
0.09242 
0.21635 
0.07173 
0.12724 
0.15576 
0.11970 
0.08528 
0.18222 
0.08979 
0.16174 
0.10166 
0.19031 
0.18365 
0.12408 
0.11358 
0.09021 
0.05958 
0.11468 
0.09300 
0.14179 
0.17811 
0.17516 
0.20460 
0.08175 
0.16966 
0.14229 
0.10428 
0.14263 
0.21150 
0.12235 
0.07610 
0.10558 
0.06451 
0.05879 
0.19182 
0.10517 
0.04138 
0.18175 
0.13050 
0.11749 
0.13576 
0.16906 
0.11490 
0.09183 
0.13963 
0.08277 
0.06236 
0.09342 
0.02857 
0.08728 
0.10966 
0.13453 
0.03012 
0.10264 
0.07038 
0.15429 
0.08805 
0.12521 
0.13314 
0.11074 
0.04761 
0.16375 
0.05653 
0.16532 
0.09399 
0.08006 
0.08376 
0.19811 
0.06741 
0.16725 
0.11885 
0.11294 
0.11102 
0.11148 
0.08633 
0.11256 
0.05627 
0.06389 
0.06534 
0.03738 
0.15393 
0.06827 
0.12479 
0.05808 
0.16180 
0.05149 
0.04969 
0.15322 
0.10862 
0.22225 
0.15507 
0.13834 
0.08537 
0.11481 
0.12704 
0.14869 
0.07614 
0.14654 
0.03973 
0.07469 
0.08674 
0.15730 
0.09538 
0.16143 
0.14076 
0.10656 
0.10991 
0.16916 
0.08185 
0.10401 
0.11551 
0.07983 
0.17227 
0.06698 
0.10166 
0.07128 
0.05041 
0.09432 
0.10777 
0.12257 
0.12833 
0.08555 
0.07972 
0.17736 
0.12202 
0.13822 
0.06253 
0.16660 
0.11497 
0.07853 
0.09299 
0.02055 
0.10566 
0.06506 
0.14972 
0.13745 
0.12444 
0.05572 
0.10691 
0.09133 
0.16600 
0.14822 
0.06806 
0.18813 
0.10244 
0.15320 
0.06853 
0.18973 
0.07864 
0.15264 
0.12266 
0.05121 
0.15644 
0.17010 
0.10502 
0.18319 
0.09220 
0.14514 
0.12839 
0.18995 
0.06246 
0.14500 
0.13146 
0.10155 
0.09013 
0.15095 
0.11102 
0.17449 
0.06702 
0.10655 
0.15915 
0.11495 
0.05471 
0.17772 
0.08967 
0.13137 
0.13233 
0.21303 
0.17416 
0.16470 
0.15415 
0.17248 
0.15752 
0.15437 
0.11259 
0.10540 
0.08929 
0.14083 
0.15486 
0.17174 
0.12584 
0.21391 
0.17920 
0.12080 
0.13137 
0.13637 
0.08932 
0.20008 
0.08181 
0.05450 
0.14008 
0.11875 
0.13467 
0.17515 
0.14642 
0.20196 
0.12520 
0.08326 
0.16668 
0.14815 
0.13314 
0.11216 
0.10798 
0.14947 
0.07123 
0.09422 
0.08140 
0.13830 
0.16726 
0.18915 
0.12515 
0.08387 
0.09255 
0.08183 
0.12110 
0.19102 
0.10599 
0.09983 
0.12535 
0.21720 
0.10192 
0.04103 
0.06318 
0.03746 
0.07460 
0.11628 
0.05624 
0.10740 
0.06679 
0.10661 
0.10039 
0.12451 
0.03290 
0.13392 
0.18676 
0.16543 
0.16179 
0.10512 
0.12872 
0.11118 
0.08590 
0.20036 
0.18047 
0.23328 
0.11113 
0.11609 
0.09087 
0.08543 
0.20450 
0.15892 
0.07860 
0.10038 
0.08258 
0.16123 
0.06351 
0.06585 
0.11496 
0.13819 
0.21851 
0.11122 
0.06806 
0.14094 
0.03649 
0.12597 
0.12059 
0.16416 
0.07131 
0.21258 
0.14020 
0.12653 
0.09030 
0.11510 
0.06509 
0.04789 
0.05245 
0.19406 
0.15111 
0.08846 
0.13834 
0.11443 
0.07445 
0.20488 
0.06244 
0.07105 
0.10639 
0.08090 
0.07318 
0.18775 
0.13901 
0.15042 
0.09844 
0.15811 
0.17400 
0.10101 
0.18892 
0.09317 
0.14679 
0.21037 
0.18635 
0.06510 
0.09431 
0.22629 
0.09808 
0.11639 
0.09964 
0.07161 
0.10420 
0.32283 
0.05841 
0.04519 
0.16788 
0.16182 
0.02656 
0.05919 
0.12378 
0.07629 
0.03455 
0.09402 
0.03837 
0.10291 
0.11458 
0.20092 
0.16249 
0.11342 
0.11252 
0.11132 
0.10058 
0.05224 
0.07119 
0.18007 
0.09634 
0.14687 
0.04966 
0.18005 
0.20773 
0.10390 
0.14081 
0.05879 
0.15117 
0.03938 
0.12872 
0.10477 
0.10408 
0.15333 
0.13215 
0.10211 
0.12237 

 VECTORS Umean float 
-0.02750 0.07400 0.01300 
0.03400 0.03800 -0.01600 
0.04300 0.02100 -0.02250 
0.02850 0.02550 0.01950 
-0.02600 0.05600 -0.05650 
0.09200 0.08400 -0.10850 
0.00750 0.04550 -0.03250 
-0.00250 0.11900 -0.02850 
0.02400 0.07600 0.04900 
0.09400 0.08350 -0.10300 
-0.02150 0.09850 -0.01050 
-0.02050 0.06900 -0.04800 
0.07400 0.11250 -0.06400 
-0.05350 0.04200 -0.07450 
0.03750 0.15750 0.00600 
0.01200 0.07950 0.02250 
-0.01550 0.07400 -0.01050 
0.01900 0.10900 0.07950 
0.06100 0.01500 -0.02050 
0.02100 0.08350 -0.04850 
-0.04050 0.07600 -0.00500 
-0.01550 0.08150 -0.04650 
0.00550 0.08400 0.06000 
0.02400 0.11900 0.00100 
0.01450 0.09500 -0.02600 
0.07950 -0.01150 -0.02700 
0.03300 0.06950 -0.07800 
-0.01050 0.14650 0.04200 
0.03700 0.12850 -0.10600 
0.07400 0.17100 0.06450 
0.04350 0.14100 0.05500 
0.04950 0.04800 -0.06300 
0.02750 0.09850 -0.05550 
0.01200 0.12200 -0.07000 
-0.05850 0.06900 -0.06450 
-0.04150 0.04550 -0.05250 
0.00850 0.09600 -0.09650 
0.00700 0.05100 0.00450 
0.10100 0.12800 -0.01450 
0.04750 0.10600 0.04700 
0.08400 0.17150 0.03550 
0.01600 0.04400 -0.03300 
-0.01800 0.09000 -0.04500 
0.02000 0.14950 -0.06800 
-0.05050 0.05850 -0.05900 
-0.00150 0.06500 0.00600 
-0.00250 0.16700 -0.01000 
-0.00600 0.04000 -0.09500 
0.05550 0.13350 -0.20050 
0.09100 0.02900 0.01050 
-0.02600 0.09100 -0.07150 
0.05100 0.04600 0.01750 
0.02850 0.07900 0.07400 
0.05500 0.10950 0.00900 
0.03550 0.16200 0.00350 
0.13150 0.05550 0.01000 
0.06500 0.16300 -0.01150 
0.10000 0.16150 -0.02650 
-0.03250 0.08050 -0.11500 
-0.04900 0.00950 0.00900 
0.06850 0.13350 -0.09150 
0.04250 0.11450 0.03800 
0.01750 0.06650 -0.08750 
0.02100 0.10650 0.01900 
-0.00350 0.13000 -0.04800 
0.08800 0.09700 -0.00850 
0.05900 0.12050 -0.04350 
0.09750 0.14200 -0.06950 
0.09250 0.10450 -0.09750 
-0.00600 0.15600 -0.06100 
0.10600 0.18100 -0.05300 
0.03000 0.02000 -0.12950 
0.03250 0.15600 -0.10300 
0.03350 0.09500 -0.10250 
-0.00300 0.12250 0.03050 
0.01200 0.13950 -0.02700 
0.02800 0.09900 0.05850 
0.04250 0.01700 0.02700 
0.07450 0.14150 -0.12800 
0.06650 0.10050 -0.00650 
-0.01600 0.10150 0.02750 
0.08000 0.10700 -0.06800 
0.09900 0.08950 -0.15600 
0.10500 0.05100 -0.08500 
-0.07700 -0.01900 -0.06300 
0.02450 0.14900 -0.02000 
0.06550 0.10900 -0.17050 
0.09450 0.08800 0.00300 
0.05350 0.03300 -0.00600 
0.08750 0.01250 -0.03150 
0.01150 0.15600 -0.13100 
0.04950 0.08050 -0.05600 
0.10900 0.11400 0.04450 
0.03600 0.04950 -0.08400 
0.07200 0.08450 -0.19300 
0.05350 0.03700 -0.01400 
0.04000 0.14400 -0.01700 
-0.05400 0.05450 -0.05350 
0.01750 0.08850 -0.06900 
-0.03950 0.10300 -0.06800 
0.10850 0.13700 -0.12850 
0.07400 0.15600 -0.01300 
0.10200 0.14300 -0.08050 
-0.01850 0.11750 -0.02750 
0.04500 0.03850 0.05200 
0.05050 0.04950 -0.01300 
-0.00000 0.08950 -0.02850 
0.00050 0.05950 -0.02400 
-0.03050 0.09200 -0.04850 
-0.01900 0.04050 -0.04750 
0.01700 0.00450 -0.02100 
0.03500 0.07150 -0.04250 
0.04250 0.06500 -0.07100 
-0.05550 0.01800 -0.03250 
0.00150 0.06100 -0.02300 
0.02350 0.10300 0.03750 
-0.00400 0.01550 -0.03550 
0.08500 0.09150 -0.04900 
0.01150 0.09000 0.03400 
0.01250 0.04250 0.04000 
-0.03200 0.05150 -0.09850 
0.03700 0.16500 -0.02800 
0.09500 0.08450 -0.04800 
-0.02550 0.09200 -0.04300 
-0.02200 0.00200 -0.01100 
0.05250 0.17400 -0.08200 
-0.05800 0.05800 -0.05450 
0.05650 0.07200 0.04850 
-0.01250 0.10700 0.01900 
0.04150 0.11400 -0.03400 
0.04150 0.16100 -0.11650 
0.03250 0.11050 0.02700 
0.02650 0.06300 -0.06500 
0.05700 0.11050 -0.12750 
-0.02700 0.04950 -0.06600 
0.04250 0.13400 0.08250 
0.06800 0.01000 -0.00300 
0.12350 0.04950 0.00350 
-0.00400 0.08600 -0.06000 
0.00550 0.09850 -0.12450 
0.05550 0.04800 -0.04350 
0.08650 0.12750 -0.07650 
-0.01050 0.09100 -0.00850 
-0.05150 0.07150 -0.03500 
0.00800 0.17050 -0.00950 
0.03200 0.04600 -0.07350 
0.06750 0.10700 -0.17550 
0.02650 0.06650 -0.00450 
0.05250 0.11450 0.01800 
0.10450 0.10700 -0.04350 
0.05450 0.10100 0.03400 
0.04900 0.04600 -0.05250 
0.09850 0.14150 0.05900 
0.01500 0.08600 -0.02100 
0.02400 0.13850 -0.08000 
0.09500 0.03550 -0.00700 
0.03050 0.18200 -0.04650 
0.09400 0.06100 -0.14550 
-0.04300 0.06200 -0.09850 
0.03550 0.10000 0.04050 
-0.02700 0.05700 -0.06450 
-0.00900 0.04700 -0.03550 
0.05950 0.07250 -0.06600 
0.03800 0.05850 -0.06150 
0.07400 0.06500 0.10200 
-0.01850 0.15650 -0.08300 
0.05300 0.13100 -0.10350 
0.01500 0.18750 -0.08050 
0.04500 0.04300 -0.05300 
0.00150 0.16450 -0.04150 
0.02150 0.12650 -0.06150 
0.02100 0.08850 -0.05100 
0.03500 0.12750 -0.05350 
0.12500 0.07650 -0.15250 
0.02250 0.11950 0.01350 
0.01850 0.06000 -0.04300 
-0.08500 0.04250 -0.04600 
0.00300 0.04800 -0.04300 
0.05800 -0.00950 -0.00150 
0.15100 0.05150 -0.10650 
-0.00150 0.10150 0.02750 
0.01700 0.02150 -0.03100 
0.09550 0.12750 0.08750 
-0.01000 0.11000 -0.06950 
0.03900 0.10150 0.04450 
0.09050 0.10000 0.01550 
0.06200 0.15600 -0.02000 
0.10900 -0.02050 0.03000 
0.08550 0.02050 -0.02650 
0.03000 0.12500 0.05450 
-0.02150 0.06800 -0.04200 
0.00500 0.02800 -0.05550 
-0.00150 0.07400 0.05700 
-0.00200 0.02750 -0.00750 
0.00900 0.04850 -0.07200 
0.01050 0.10550 0.02800 
0.02900 0.11500 -0.06350 
-0.02400 0.01100 -0.01450 
-0.01600 0.09850 -0.02400 
-0.01050 0.06650 -0.02050 
0.04850 0.06650 -0.13050 
0.03350 0.07750 0.02500 
0.04050 0.11500 0.02850 
0.03550 0.12800 0.00900 
0.01900 -0.04000 -0.10150 
0.01300 0.03700 -0.02700 
0.06150 0.11100 -0.10350 
0.04000 0.02250 -0.03300 
0.02400 0.10550 0.12500 
0.03950 0.04800 -0.07050 
0.01550 0.06700 -0.04100 
-0.07100 0.03450 -0.02800 
0.12150 0.12800 -0.09000 
0.03250 0.04100 -0.04250 
0.04000 0.09100 -0.13450 
-0.03650 0.11300 -0.00500 
0.09650 0.05600 -0.01750 
-0.09250 0.03950 -0.04700 
-0.06250 0.05450 -0.07450 
0.08450 0.00850 0.01550 
-0.04350 0.03700 -0.09700 
0.00800 0.04450 -0.03350 
0.00050 0.05500 -0.03250 
-0.04050 -0.02050 -0.04700 
-0.00300 -0.02850 -0.02400 
-0.08200 0.06900 -0.11050 
0.00800 0.05950 0.03250 
-0.03300 0.11850 -0.02100 
-0.03950 0.04200 -0.00700 
0.10850 0.07400 -0.09450 
0.03500 0.03750 0.00450 
0.02900 0.03350 -0.02250 
0.10050 0.09600 0.06450 
0.00250 0.07900 -0.07450 
0.11000 0.17900 0.07250 
0.09050 0.04900 -0.11600 
0.10750 0.08550 0.01650 
0.07350 0.02500 -0.03550 
-0.02700 0.10050 -0.04850 
0.01500 0.09500 -0.08300 
0.04850 0.11000 -0.08750 
0.01300 0.04150 -0.06250 
-0.00450 0.13450 -0.05800 
-0.00800 0.01350 -0.03650 
-0.04000 0.00850 -0.06250 
-0.03050 0.06950 -0.04200 
0.11850 0.10050 -0.02450 
0.02600 0.06900 -0.06050 
0.06550 0.13650 -0.05600 
-0.01300 0.06900 -0.12200 
0.07500 0.06950 -0.03000 
-0.00600 0.02650 0.10650 
0.12350 0.10350 0.05150 
-0.01250 0.07850 -0.01950 
0.07150 0.00250 0.07550 
-0.01350 0.09050 0.07050 
0.02050 0.07150 -0.02900 
0.11450 0.09250 -0.08950 
-0.02100 0.06100 0.01800 
0.04200 0.07050 -0.06000 
-0.03600 0.05800 -0.02050 
0.03100 0.03950 0.00450 
-0.03450 -0.00700 -0.08750 
0.03000 0.10350 -0.00150 
0.04750 0.11250 -0.01050 
0.02250 0.11250 0.05750 
-0.03650 -0.03500 -0.06900 
0.00850 0.07850 0.01100 
0.07250 0.13650 -0.08700 
0.10250 0.05850 0.03100 
0.09350 0.05750 -0.08400 
-0.01750 0.05950 -0.00800 
-0.00750 0.15300 -0.06550 
0.09950 0.05600 0.01350 
-0.00200 0.07550 -0.02150 
0.03650 0.08500 -0.00950 
0.01650 -0.00250 -0.01200 
0.02300 0.09700 -0.03500 
0.05650 0.02800 -0.01600 
0.00800 0.14950 0.00100 
0.00750 0.11950 -0.06750 
0.03500 0.10750 0.05200 
0.04050 -0.03650 -0.01150 
0.10150 0.03250 0.00850 
-0.01850 0.07700 -0.04550 
0.11750 0.08800 -0.07750 
0.07850 0.12550 -0.00750 
-0.02550 0.05750 -0.02600 
0.07750 0.16150 -0.05750 
-0.07200 0.05000 -0.05300 
0.04350 0.13900 -0.04750 
0.02600 0.03900 -0.05000 
0.09250 0.13500 -0.09600 
-0.04200 0.06400 0.01800 
0.07150 0.11950 -0.06250 
0.03800 0.09650 0.06550 
0.03600 0.02550 0.02600 
0.02150 -0.08950 -0.12650 
0.07850 0.14550 0.04000 
0.04650 0.07850 0.05200 
0.08250 0.03150 -0.16050 
0.05250 0.07350 0.01850 
0.10650 0.05900 -0.07900 
-0.04250 0.12100 0.00600 
0.06950 0.17650 -0.01000 
0.02000 0.04450 -0.03900 
0.06450 0.11900 0.05200 
-0.11650 0.03750 -0.04800 
-0.07000 0.01250 -0.07250 
0.02350 0.07050 -0.05100 
0.06650 0.12050 -0.06200 
-0.04950 0.09800 0.01650 
-0.04100 0.16950 -0.00600 
0.02100 0.04550 -0.04450 
0.08700 0.05800 -0.02050 
-0.02000 0.14800 0.05500 
0.06400 0.06900 -0.06600 
0.00350 0.04350 -0.03300 
0.12550 0.10950 -0.06200 
-0.01800 0.08200 -0.03150 
0.04300 0.12350 0.01250 
0.11850 0.04700 0.03550 
0.05850 0.20100 -0.03950 
0.02350 0.17200 0.01400 
-0.00700 0.16450 0.00400 
0.06600 0.09900 -0.09800 
0.10600 0.13600 0.00400 
0.05350 0.10300 -0.10650 
0.06750 0.11900 0.07150 
-0.09300 0.01750 -0.06100 
0.03100 0.09500 0.03350 
-0.02350 0.08550 -0.01050 
0.06500 0.06450 -0.10700 
0.04950 0.13500 -0.05750 
0.10000 0.12700 -0.05800 
-0.08700 -0.01600 -0.08950 
0.10150 0.17500 -0.06950 
0.04000 0.17450 0.00800 
0.05700 0.09350 -0.05100 
0.10100 0.06750 -0.05000 
0.01850 0.13050 0.03500 
-0.03400 0.06250 -0.05400 
0.11550 0.06700 -0.14900 
0.05200 0.06300 0.00450 
-0.02050 0.04950 -0.01000 
-0.00300 0.14000 0.00350 
0.01550 0.06600 -0.09750 
0.05700 0.08400 -0.08850 
0.11150 0.13450 -0.01250 
0.08350 0.11900 -0.01750 
0.04000 0.17200 -0.09800 
0.08200 0.08750 0.03600 
-0.05650 0.03450 -0.05050 
-0.10350 0.03800 -0.12500 
0.06400 0.04300 -0.12650 
-0.01300 0.07000 -0.11250 
0.08050 0.07600 -0.01800 