# vtk DataFile Version 2.0 
Xm, Ym, Zm, Uvecs, timestep 10193 
ASCII 
 
DATASET POLYDATA POINTS 448 float 
  0.106   6.222 -73.857 
  1.142   5.306 -70.350 
  2.769   3.831 -71.797 
 -6.800  -0.984 -73.834 
 10.845   4.295 -71.785 
  5.875  -0.067 -69.003 
 -4.131  -3.155 -69.696 
  4.255   2.623 -71.782 
 -6.692  -1.875 -71.168 
 -3.061   3.031 -67.770 
  3.571   1.632 -69.815 
 -8.657   6.872 -74.744 
 -2.238  10.308 -70.457 
-13.736   6.979 -77.054 
  1.332  10.800 -67.971 
 -5.050  -1.845 -70.918 
  2.351   3.239 -68.421 
-11.747  -4.426 -72.523 
 -6.641  -1.303 -68.942 
  4.749   4.144 -68.471 
  1.436   0.423 -69.731 
  2.889   6.078 -71.813 
 -8.282   5.153 -69.453 
 -3.833  -6.191 -69.985 
 -0.237  10.544 -70.285 
 -1.602  -6.007 -67.995 
 -7.395   4.216 -67.049 
 -3.430   6.468 -68.105 
 -0.736  -0.566 -67.641 
 -6.367   7.037 -66.502 
 -2.120  -3.583 -69.427 
  3.194  -4.943 -70.395 
  5.239  -5.230 -72.871 
 -0.539  -2.210 -67.241 
 -1.714  -7.601 -66.077 
  0.935   7.552 -66.225 
-12.089 -12.147 -71.290 
  1.300  -2.922 -72.710 
 -3.407   6.341 -62.997 
 -8.479  -8.375 -71.393 
  2.775   9.498 -66.433 
  8.843   1.191 -69.739 
  5.886   5.120 -65.245 
 -7.144  -7.304 -68.162 
  0.677  -9.053 -73.178 
 -0.135  10.431 -64.887 
 -2.061   7.027 -66.144 
  6.716  -0.281 -75.041 
  2.517   0.147 -71.252 
 14.117  -3.822 -72.046 
  3.236  -8.316 -62.724 
 -0.871  -7.850 -67.422 
  4.085  -6.531 -73.250 
  0.084  -2.885 -70.644 
 -7.151   3.208 -61.990 
 -5.822  -7.010 -65.627 
 -0.595  -7.204 -63.308 
 -9.075 -12.230 -69.696 
 -0.194  -6.453 -70.055 
  3.711  -8.075 -67.236 
 -5.547  -0.117 -63.254 
 -3.309 -11.717 -71.682 
-10.065  -7.111 -65.303 
  9.716   1.024 -64.536 
  0.651 -10.299 -62.683 
  1.905  -6.460 -72.424 
 -4.106   1.728 -67.816 
-10.848   1.317 -67.184 
  1.097 -12.046 -69.766 
 -4.409  -6.444 -63.852 
 11.144   4.436 -67.585 
  0.384   5.442 -65.071 
  8.157   4.076 -73.575 
 -3.585  -8.568 -69.429 
-10.136   2.121 -62.641 
  0.759   6.190 -72.627 
  8.736  -4.152 -71.779 
  6.355   2.136 -67.438 
-13.191  -3.296 -67.208 
  4.828  -6.193 -71.697 
  8.476   1.839 -68.967 
  3.961   0.482 -61.844 
 -0.645  12.515 -66.834 
  0.549  -1.765 -64.150 
-10.280   9.268 -70.836 
  9.018  -5.676 -68.966 
 -2.846  -8.082 -63.769 
-11.171   8.548 -75.815 
  6.677  -8.093 -62.927 
  0.329   4.620 -64.633 
-10.046  -2.329 -67.566 
  3.772  -0.376 -64.808 
  1.079  -7.299 -66.787 
  0.446   3.482 -63.561 
  8.719  -1.087 -66.278 
 -0.562   3.025 -63.712 
  2.059 -11.802 -68.758 
-10.251  -2.718 -74.097 
 -9.547   9.471 -66.160 
 14.563  -4.433 -72.304 
 -6.764  -0.939 -63.789 
-11.740  10.816 -68.737 
 11.162  -6.219 -66.658 
 -6.906  12.570 -67.246 
 -3.263   4.380 -64.058 
  6.253 -11.809 -66.478 
  3.097   7.439 -63.215 
 -3.458  -5.086 -66.961 
 12.606   5.845 -71.726 
  3.794  -0.962 -60.726 
 10.733   4.399 -75.514 
  3.043 -10.256 -68.864 
-11.020  -4.448 -63.123 
  6.208  -1.262 -64.657 
 13.843  10.875 -69.667 
-12.394   7.860 -65.758 
 -8.489   1.680 -68.929 
 -6.107  -4.883 -66.600 
 -2.290   7.341 -73.519 
 -7.013  10.750 -69.236 
 11.996  -7.477 -73.038 
  1.923  -2.944 -63.656 
-13.789  -4.912 -69.322 
 -7.584   5.501 -72.209 
 -5.691  -2.437 -63.572 
 -0.336 -10.637 -70.581 
 -8.846  -6.304 -64.859 
 -3.382   1.446 -63.460 
 11.796  10.526 -70.904 
  3.308  -7.117 -66.999 
-11.134   2.952 -62.233 
 -7.999  12.459 -70.382 
 -4.934  -1.409 -63.184 
 -9.383 -11.338 -65.670 
 -4.899 -10.715 -68.422 
 13.750   4.639 -65.874 
-11.387  -0.662 -67.398 
 -4.089   8.493 -64.028 
  5.319  -3.845 -68.519 
  0.968  -6.994 -62.069 
  6.120   1.833 -63.916 
 -9.197   7.954 -71.047 
  8.765   8.283 -65.200 
 -0.735  -5.495 -70.192 
 -2.848   3.422 -63.394 
  4.489  -6.640 -70.012 
 -5.410  -0.877 -63.058 
 -1.005   3.048 -63.667 
  5.492   8.575 -72.807 
  1.501   5.309 -62.717 
 -7.925  -0.409 -69.957 
  5.019   9.220 -71.310 
  8.779   4.703 -67.973 
-10.493   2.533 -65.535 
 12.145   4.869 -67.921 
 -3.523   4.133 -69.063 
  6.953  -3.035 -64.422 
  5.696   9.428 -70.190 
 -6.716  -1.823 -64.939 
 -3.048  -1.546 -65.576 
 -6.925   9.624 -67.042 
 -1.818 -12.215 -64.186 
  8.127  -0.896 -68.419 
 -5.299   4.973 -61.144 
  6.697   2.978 -67.518 
 -9.181  11.285 -67.545 
  6.079  -5.277 -64.929 
  2.270   0.522 -66.614 
 -4.693  -0.450 -62.839 
 11.576   2.011 -64.059 
-11.634   5.928 -61.753 
 -6.507   6.514 -60.641 
  2.146 -11.921 -70.523 
 -3.616   0.450 -62.133 
 -6.953   8.253 -71.378 
  6.144  -7.909 -67.094 
  1.280  11.918 -66.150 
  1.004  -1.240 -67.547 
 -7.829  -4.508 -63.186 
-10.432  -4.244 -72.618 
  6.555   3.654 -63.020 
 -3.781  -6.506 -72.501 
 -3.535   0.746 -70.655 
  9.428   0.678 -69.535 
  8.577  -8.466 -68.792 
  7.191  -6.278 -73.919 
  0.898   5.546 -65.049 
-10.964  -8.148 -63.944 
  5.221   6.038 -65.995 
  9.740   8.223 -66.784 
 -7.439  12.503 -63.144 
  4.902   4.473 -71.834 
  4.940  10.416 -65.988 
  8.873  11.230 -71.275 
 10.718   7.939 -71.993 
  8.386   7.260 -64.608 
 10.916  -1.394 -68.471 
 14.320  11.563 -67.267 
-12.068   3.026 -68.136 
 -2.159   7.587 -65.609 
 12.979   2.204 -65.774 
 -7.329   1.518 -61.210 
 -3.336  -6.332 -63.340 
 17.374  11.146 -69.274 
 11.783   0.802 -67.517 
-14.791  -8.468 -72.998 
 -3.667   6.332 -70.508 
-13.940  -4.943 -73.478 
  6.782  -8.236 -77.095 
  0.742 -10.367 -60.638 
  2.606   0.250 -60.280 
 -0.085   6.578 -61.596 
  9.047  -3.029 -65.172 
  7.119  -7.540 -64.323 
 -3.611  -8.758 -65.126 
  6.729   0.743 -71.807 
  7.058  -1.744 -65.141 
  0.712   7.015 -71.264 
-12.749   2.429 -69.861 
 -5.165   8.422 -67.405 
-13.876  -8.262 -76.483 
 -8.580   6.468 -68.444 
 11.967  -9.412 -68.582 
 13.899  11.597 -67.085 
  5.743  -9.665 -63.636 
 -2.789 -12.332 -68.727 
-12.269  -7.265 -64.669 
  9.002 -11.672 -68.423 
  7.766  -8.563 -70.269 
 -6.167   6.105 -64.716 
 -8.435 -10.246 -66.398 
 -0.722   1.607 -61.713 
  9.607   6.729 -65.501 
  9.692   2.396 -70.969 
 -4.905  -8.992 -73.977 
  4.591   0.498 -70.042 
  9.059   4.494 -71.745 
-14.025  11.300 -73.254 
  9.078  -1.714 -70.919 
 11.482 -12.617 -72.977 
 -9.177   7.789 -65.629 
 -0.590   3.847 -65.178 
  7.612  -0.256 -69.757 
 -0.855   7.502 -76.168 
  4.852   0.734 -67.975 
 -3.991  -7.777 -65.579 
  0.176  -2.844 -61.771 
 12.621   2.839 -63.294 
  3.849  -8.614 -61.874 
  4.665   1.474 -60.483 
 -3.587   3.555 -62.782 
-10.072  -7.483 -71.916 
 15.209  10.423 -68.876 
-12.679  10.002 -69.243 
  8.739  -1.688 -71.975 
 -4.365  -4.700 -72.333 
-13.773  -4.556 -71.406 
-12.845   6.931 -64.447 
 -1.042 -12.681 -67.368 
-11.073 -10.238 -71.440 
-13.727  -3.434 -67.054 
 13.123  -6.237 -70.076 
 -3.942  -8.307 -65.903 
-11.335   0.009 -66.336 
 15.561 -12.500 -67.174 
 -1.476  10.590 -69.756 
 -9.570  -1.651 -66.268 
 13.200 -12.685 -69.238 
  8.547  -9.040 -71.179 
  8.011   7.746 -65.541 
  1.235  -3.888 -74.642 
  1.977  -0.298 -69.333 
  0.938   9.265 -72.679 
 -8.015  -8.819 -64.650 
  5.129   8.686 -70.361 
-11.297 -11.404 -67.669 
  1.939  -2.973 -68.675 
 -0.945  -9.883 -64.151 
  6.293  10.670 -68.712 
 -4.239 -11.519 -62.097 
  8.789  -5.694 -67.249 
 -2.853  11.006 -64.536 
 -1.434  -8.844 -61.835 
  4.433   6.274 -68.784 
-14.285 -12.271 -70.605 
  3.200  11.102 -69.654 
  1.079  -5.936 -70.306 
  9.008  -2.859 -71.844 
 -2.781  -1.996 -61.865 
 -7.665  -6.064 -58.604 
 -6.781  -1.001 -66.793 
  0.776   9.814 -64.735 
 18.069  -4.290 -67.371 
 14.134  -7.123 -65.816 
 -7.697  10.404 -74.933 
  3.672   4.316 -62.490 
 -7.851  13.112 -64.345 
 -4.454  -5.303 -62.605 
 -5.625   1.037 -61.206 
  7.032  -7.115 -66.582 
 -0.991   5.894 -62.471 
  8.727  -4.262 -67.615 
  4.749   1.144 -60.454 
  4.711   6.894 -70.766 
 -0.264  -7.051 -63.932 
 -5.309  -6.931 -63.446 
 12.372   8.005 -64.219 
  8.326  -6.995 -63.793 
  4.896 -10.274 -60.310 
 10.954  -8.447 -70.456 
 -6.691  -7.341 -63.922 
 -5.256  -4.399 -62.111 
 -1.301  -0.927 -60.268 
  2.091   1.420 -69.855 
 -8.790  -8.418 -74.229 
 -4.811 -10.125 -70.148 
 -7.748 -12.376 -72.344 
 -1.312   3.616 -64.629 
-10.522   8.960 -65.007 
-10.132  -6.585 -60.469 
 10.431 -10.086 -68.652 
 -7.345  -5.810 -64.488 
 -1.636  -9.790 -72.901 
  6.266  -7.790 -75.937 
  9.384  -9.414 -63.481 
  6.605   3.079 -70.053 
 -0.485  10.623 -64.077 
-12.291   4.175 -65.850 
  7.694   0.331 -62.358 
-12.313   0.900 -77.960 
 15.830  -5.004 -70.739 
 -4.249   3.813 -74.284 
 -8.829 -11.655 -70.120 
  3.535   8.127 -71.767 
  9.471   8.864 -63.323 
 -4.048  -1.143 -62.326 
 -0.884 -11.900 -69.636 
 13.884  11.349 -62.895 
 10.125  -2.787 -66.887 
-12.723  -3.396 -67.070 
 -0.188   6.488 -71.914 
-10.750   9.723 -78.188 
  7.629   0.036 -63.993 
  6.844  -3.242 -75.558 
  6.535  -7.565 -72.434 
 12.016 -10.268 -60.924 
 14.508  -6.816 -63.105 
 14.497  -8.147 -66.459 
  2.513  -6.997 -59.304 
 -7.884   8.142 -64.432 
 -4.327  -3.145 -63.645 
  3.696  -9.479 -72.102 
 15.755  -1.977 -65.609 
 11.328   2.186 -70.096 
  1.442  -7.364 -65.266 
  4.892   0.157 -62.083 
-12.295  12.951 -64.438 
 -6.320  -2.522 -76.368 
  5.281   7.340 -64.357 
 17.111  -6.005 -67.129 
 11.430 -11.721 -58.762 
  5.784 -12.484 -65.275 
-12.571   0.507 -63.341 
 -8.906  -7.364 -71.136 
  8.595 -11.272 -68.913 
 -5.869   8.762 -74.796 
 -3.643   1.715 -58.142 
 11.366  -0.988 -62.846 
  9.875  -8.480 -74.012 
 13.224  -4.646 -67.273 
  5.091   6.145 -74.008 
 10.383 -12.307 -73.942 
 11.150 -13.019 -66.444 
 13.983   9.012 -75.448 
  5.125 -10.512 -68.824 
  8.218   1.836 -67.166 
-13.572   8.549 -65.162 
  4.684  -2.094 -66.104 
 -5.685  -7.496 -70.429 
 -7.622  12.119 -72.493 
  9.723  -2.974 -64.631 
  6.105  -8.746 -68.583 
  4.781   7.024 -58.736 
-12.788  -0.641 -66.805 
 11.747  -3.373 -59.179 
  1.902  -0.533 -66.217 
 -1.752   1.769 -60.612 
 -7.581 -12.115 -62.871 
 11.694   8.445 -64.120 
  6.409   1.323 -60.281 
-13.355   9.777 -68.036 
  8.943   9.312 -62.746 
 -4.806  -5.247 -70.718 
 14.188  11.592 -73.252 
 11.543  -3.199 -69.018 
  9.962  -2.520 -71.979 
  2.146  -1.075 -60.989 
 -8.287   3.916 -73.233 
 12.275 -11.781 -63.466 
 13.470  -8.227 -72.126 
  5.668  -1.857 -74.739 
-13.841   0.428 -76.294 
  3.146  -8.830 -61.499 
 -1.988  10.579 -75.554 
  4.922  13.078 -66.094 
-14.294 -10.602 -71.053 
  0.132   0.245 -66.682 
  8.902 -11.679 -61.593 
 -1.482   3.293 -75.547 
  1.242   3.012 -70.142 
-11.543   8.708 -67.460 
  2.908  -4.371 -67.468 
  8.110  -2.382 -75.257 
 -9.283  10.646 -68.735 
-10.581  -1.378 -82.063 
-12.031   3.772 -64.843 
  3.069   2.284 -66.101 
  0.151  -2.651 -72.224 
 -0.183  -0.594 -74.858 
 15.318   6.084 -66.274 
 -4.666   6.504 -65.957 
 -0.438  -8.570 -66.754 
 -5.848   8.377 -72.736 
  0.016   1.372 -70.865 
  1.820   1.643 -66.418 
 -4.666   9.962 -69.240 
 -2.087  -0.067 -67.096 
  9.744  -6.311 -71.832 
  4.736  -1.773 -59.056 
 -1.240 -10.775 -70.608 
  4.636  10.483 -74.629 
  5.783   8.784 -67.349 
  1.927   5.916 -71.361 
-10.907   2.252 -71.846 
  3.919   3.785 -61.733 
  9.392   1.841 -65.198 
 12.165  11.983 -68.005 
  7.588   8.382 -59.593 
  7.440  -0.040 -72.797 
  7.277  11.546 -70.550 
  5.064 -10.461 -74.612 
 -7.309  -0.581 -72.261 
 11.746  12.678 -71.360 
  3.117  -6.174 -72.955 
 10.368  -0.088 -69.517 
  3.684   4.129 -62.507 
 -8.114  -7.093 -71.061 
  3.120   8.866 -73.950 

 VERTICES 448 896 
1 0 
1 1 
1 2 
1 3 
1 4 
1 5 
1 6 
1 7 
1 8 
1 9 
1 10 
1 11 
1 12 
1 13 
1 14 
1 15 
1 16 
1 17 
1 18 
1 19 
1 20 
1 21 
1 22 
1 23 
1 24 
1 25 
1 26 
1 27 
1 28 
1 29 
1 30 
1 31 
1 32 
1 33 
1 34 
1 35 
1 36 
1 37 
1 38 
1 39 
1 40 
1 41 
1 42 
1 43 
1 44 
1 45 
1 46 
1 47 
1 48 
1 49 
1 50 
1 51 
1 52 
1 53 
1 54 
1 55 
1 56 
1 57 
1 58 
1 59 
1 60 
1 61 
1 62 
1 63 
1 64 
1 65 
1 66 
1 67 
1 68 
1 69 
1 70 
1 71 
1 72 
1 73 
1 74 
1 75 
1 76 
1 77 
1 78 
1 79 
1 80 
1 81 
1 82 
1 83 
1 84 
1 85 
1 86 
1 87 
1 88 
1 89 
1 90 
1 91 
1 92 
1 93 
1 94 
1 95 
1 96 
1 97 
1 98 
1 99 
1 100 
1 101 
1 102 
1 103 
1 104 
1 105 
1 106 
1 107 
1 108 
1 109 
1 110 
1 111 
1 112 
1 113 
1 114 
1 115 
1 116 
1 117 
1 118 
1 119 
1 120 
1 121 
1 122 
1 123 
1 124 
1 125 
1 126 
1 127 
1 128 
1 129 
1 130 
1 131 
1 132 
1 133 
1 134 
1 135 
1 136 
1 137 
1 138 
1 139 
1 140 
1 141 
1 142 
1 143 
1 144 
1 145 
1 146 
1 147 
1 148 
1 149 
1 150 
1 151 
1 152 
1 153 
1 154 
1 155 
1 156 
1 157 
1 158 
1 159 
1 160 
1 161 
1 162 
1 163 
1 164 
1 165 
1 166 
1 167 
1 168 
1 169 
1 170 
1 171 
1 172 
1 173 
1 174 
1 175 
1 176 
1 177 
1 178 
1 179 
1 180 
1 181 
1 182 
1 183 
1 184 
1 185 
1 186 
1 187 
1 188 
1 189 
1 190 
1 191 
1 192 
1 193 
1 194 
1 195 
1 196 
1 197 
1 198 
1 199 
1 200 
1 201 
1 202 
1 203 
1 204 
1 205 
1 206 
1 207 
1 208 
1 209 
1 210 
1 211 
1 212 
1 213 
1 214 
1 215 
1 216 
1 217 
1 218 
1 219 
1 220 
1 221 
1 222 
1 223 
1 224 
1 225 
1 226 
1 227 
1 228 
1 229 
1 230 
1 231 
1 232 
1 233 
1 234 
1 235 
1 236 
1 237 
1 238 
1 239 
1 240 
1 241 
1 242 
1 243 
1 244 
1 245 
1 246 
1 247 
1 248 
1 249 
1 250 
1 251 
1 252 
1 253 
1 254 
1 255 
1 256 
1 257 
1 258 
1 259 
1 260 
1 261 
1 262 
1 263 
1 264 
1 265 
1 266 
1 267 
1 268 
1 269 
1 270 
1 271 
1 272 
1 273 
1 274 
1 275 
1 276 
1 277 
1 278 
1 279 
1 280 
1 281 
1 282 
1 283 
1 284 
1 285 
1 286 
1 287 
1 288 
1 289 
1 290 
1 291 
1 292 
1 293 
1 294 
1 295 
1 296 
1 297 
1 298 
1 299 
1 300 
1 301 
1 302 
1 303 
1 304 
1 305 
1 306 
1 307 
1 308 
1 309 
1 310 
1 311 
1 312 
1 313 
1 314 
1 315 
1 316 
1 317 
1 318 
1 319 
1 320 
1 321 
1 322 
1 323 
1 324 
1 325 
1 326 
1 327 
1 328 
1 329 
1 330 
1 331 
1 332 
1 333 
1 334 
1 335 
1 336 
1 337 
1 338 
1 339 
1 340 
1 341 
1 342 
1 343 
1 344 
1 345 
1 346 
1 347 
1 348 
1 349 
1 350 
1 351 
1 352 
1 353 
1 354 
1 355 
1 356 
1 357 
1 358 
1 359 
1 360 
1 361 
1 362 
1 363 
1 364 
1 365 
1 366 
1 367 
1 368 
1 369 
1 370 
1 371 
1 372 
1 373 
1 374 
1 375 
1 376 
1 377 
1 378 
1 379 
1 380 
1 381 
1 382 
1 383 
1 384 
1 385 
1 386 
1 387 
1 388 
1 389 
1 390 
1 391 
1 392 
1 393 
1 394 
1 395 
1 396 
1 397 
1 398 
1 399 
1 400 
1 401 
1 402 
1 403 
1 404 
1 405 
1 406 
1 407 
1 408 
1 409 
1 410 
1 411 
1 412 
1 413 
1 414 
1 415 
1 416 
1 417 
1 418 
1 419 
1 420 
1 421 
1 422 
1 423 
1 424 
1 425 
1 426 
1 427 
1 428 
1 429 
1 430 
1 431 
1 432 
1 433 
1 434 
1 435 
1 436 
1 437 
1 438 
1 439 
1 440 
1 441 
1 442 
1 443 
1 444 
1 445 
1 446 
1 447 
POINT_DATA 448 
SCALARS MeanU double 1 
LOOKUP_TABLE default
0.11456 
0.08315 
0.11061 
0.12999 
0.15319 
0.10064 
0.13433 
0.09703 
0.20436 
0.21901 
0.14082 
0.10252 
0.18201 
0.18650 
0.28011 
0.10357 
0.10702 
0.11419 
0.11826 
0.07310 
0.16648 
0.12862 
0.09476 
0.22541 
0.12536 
0.03953 
0.21209 
0.08566 
0.13096 
0.10593 
0.13050 
0.16131 
0.20238 
0.14406 
0.21577 
0.09146 
0.12014 
0.12594 
0.22561 
0.14009 
0.16520 
0.16131 
0.10287 
0.09363 
0.12734 
0.14780 
0.13412 
0.18078 
0.13564 
0.19309 
0.16939 
0.04919 
0.15818 
0.08294 
0.13787 
0.08054 
0.14598 
0.11929 
0.10800 
0.08404 
0.27973 
0.11166 
0.09339 
0.12514 
0.05935 
0.13803 
0.18513 
0.25536 
0.08207 
0.07910 
0.09074 
0.11504 
0.20686 
0.15870 
0.22111 
0.10880 
0.10192 
0.04863 
0.07172 
0.17171 
0.14099 
0.04334 
0.18420 
0.10835 
0.10572 
0.10113 
0.13807 
0.21616 
0.12105 
0.13435 
0.08877 
0.10795 
0.18628 
0.04281 
0.20181 
0.04400 
0.13943 
0.18086 
0.17985 
0.12363 
0.24459 
0.27206 
0.18016 
0.19496 
0.07750 
0.12141 
0.09921 
0.20432 
0.29790 
0.09238 
0.32235 
0.15506 
0.08876 
0.21882 
0.16003 
0.10854 
0.15664 
0.09643 
0.11774 
0.07907 
0.09790 
0.15775 
0.14202 
0.17470 
0.22742 
0.05852 
0.17263 
0.05348 
0.17475 
0.06767 
0.19847 
0.09655 
0.16956 
0.09354 
0.11959 
0.10283 
0.23751 
0.09189 
0.18861 
0.14496 
0.02909 
0.12198 
0.07666 
0.14610 
0.10566 
0.18257 
0.23514 
0.07836 
0.14919 
0.12887 
0.17378 
0.07184 
0.08284 
0.10718 
0.14081 
0.15503 
0.14797 
0.18914 
0.17439 
0.20306 
0.17968 
0.26528 
0.17412 
0.06849 
0.09695 
0.05405 
0.12041 
0.16055 
0.19365 
0.18047 
0.12253 
0.13546 
0.09973 
0.15103 
0.14317 
0.13817 
0.23358 
0.11334 
0.23202 
0.11716 
0.14881 
0.12232 
0.15791 
0.13381 
0.24360 
0.07118 
0.07462 
0.05374 
0.16647 
0.05253 
0.15111 
0.18334 
0.06318 
0.22297 
0.12979 
0.08698 
0.12255 
0.21389 
0.18943 
0.11188 
0.22568 
0.21021 
0.14974 
0.23357 
0.04053 
0.17039 
0.13236 
0.18585 
0.19656 
0.13225 
0.07219 
0.12795 
0.12982 
0.14741 
0.09246 
0.16679 
0.29016 
0.09181 
0.19250 
0.03200 
0.17208 
0.05624 
0.08706 
0.19079 
0.23896 
0.14270 
0.08675 
0.03032 
0.13594 
0.18423 
0.19319 
0.13010 
0.03870 
0.28078 
0.14936 
0.17068 
0.19686 
0.28036 
0.03997 
0.10718 
0.13804 
0.12936 
0.17555 
0.27595 
0.03424 
0.11236 
0.07994 
0.16437 
0.11239 
0.06578 
0.08147 
0.15608 
0.30367 
0.20695 
0.13021 
0.12433 
0.10679 
0.08444 
0.13975 
0.08411 
0.12494 
0.16158 
0.04462 
0.20430 
0.02796 
0.20962 
0.15329 
0.07864 
0.11529 
0.13280 
0.09796 
0.19126 
0.07830 
0.08830 
0.15662 
0.12572 
0.10980 
0.15092 
0.20231 
0.14928 
0.11344 
0.21852 
0.16285 
0.09835 
0.09012 
0.12265 
0.10484 
0.19072 
0.18674 
0.08558 
0.17008 
0.07249 
0.16671 
0.21316 
0.19633 
0.11252 
0.12601 
0.05199 
0.23571 
0.03870 
0.06057 
0.08043 
0.04773 
0.12244 
0.19703 
0.08601 
0.14449 
0.10280 
0.08029 
0.06058 
0.26326 
0.20782 
0.13421 
0.10012 
0.13710 
0.09642 
0.16661 
0.13680 
0.11444 
0.12917 
0.08028 
0.15057 
0.14693 
0.26771 
0.07706 
0.06451 
0.15067 
0.19150 
0.12093 
0.21269 
0.20762 
0.10749 
0.10887 
0.14465 
0.05237 
0.21532 
0.15619 
0.18796 
0.17431 
0.04050 
0.14025 
0.09749 
0.11586 
0.15622 
0.19226 
0.06125 
0.13767 
0.13174 
0.18277 
0.20156 
0.20248 
0.07516 
0.30584 
0.22497 
0.21306 
0.13092 
0.23284 
0.16894 
0.08546 
0.28371 
0.07467 
0.09762 
0.28263 
0.21087 
0.05497 
0.20151 
0.16927 
0.21729 
0.10456 
0.20493 
0.25175 
0.11331 
0.10892 
0.15957 
0.21562 
0.09281 
0.17738 
0.22203 
0.16913 
0.04779 
0.12494 
0.16865 
0.14939 
0.11283 
0.24794 
0.16467 
0.05977 
0.12412 
0.08860 
0.05773 
0.14215 
0.07706 
0.20685 
0.07471 
0.31712 
0.24873 
0.14273 
0.26545 
0.13054 
0.12722 
0.17332 
0.30647 
0.10180 
0.29181 
0.17123 
0.11577 
0.12826 
0.10980 
0.24322 
0.14895 
0.15286 
0.17304 
0.20312 
0.09245 
0.27555 
0.07339 
0.07715 
0.13585 
0.17734 
0.21461 
0.26664 
0.09652 
0.12166 
0.20334 
0.10277 
0.15035 
0.14372 
0.10329 
0.23648 
0.12255 
0.14093 
0.06627 
0.08756 
0.28330 
0.07983 
0.05883 
0.17276 
0.07863 
0.19257 
0.25091 
0.05551 
0.08988 
0.18666 
0.14594 
0.06682 
0.10536 
0.11031 
0.12176 

 VECTORS Umean float 
-0.01550 -0.02800 -0.11000 
0.04900 0.00950 -0.06650 
0.02550 -0.08000 -0.07200 
0.09400 0.08350 0.03300 
0.05600 0.00500 -0.14250 
0.01150 -0.01400 -0.09900 
0.06100 0.09950 -0.06650 
0.02450 -0.07050 -0.06200 
0.10450 0.16850 -0.04950 
0.11350 0.17250 -0.07300 
0.06250 -0.11650 -0.04850 
0.02300 0.08650 -0.05000 
-0.04700 0.16750 -0.05350 
-0.00050 0.00100 -0.18650 
-0.21000 -0.18100 -0.04000 
0.02050 0.08000 -0.06250 
0.08800 -0.05300 -0.03000 
0.02650 0.05500 -0.09650 
0.03550 0.07800 -0.08150 
-0.02900 0.00900 -0.06650 
0.00550 0.06300 -0.15400 
-0.10550 -0.03250 -0.06600 
0.08650 -0.02100 -0.03250 
0.20300 0.08900 0.04100 
-0.11050 -0.00500 0.05900 
0.03350 0.02050 -0.00450 
0.12000 0.17450 0.01150 
0.06750 0.04900 0.01950 
0.00300 0.08450 -0.10000 
-0.00400 0.09650 0.04350 
0.02450 0.08550 -0.09550 
0.02850 -0.06900 -0.14300 
0.12350 -0.03000 -0.15750 
-0.02700 0.05100 -0.13200 
-0.06650 0.11650 0.16900 
0.07700 0.04800 0.01150 
0.07250 0.01850 -0.09400 
0.00400 0.03800 -0.12000 
0.01400 0.09950 0.20200 
0.04900 0.05200 -0.12050 
-0.15400 -0.05800 -0.01450 
0.01900 0.06700 -0.14550 
-0.07000 0.01150 -0.07450 
0.02750 -0.00100 -0.08950 
0.09700 0.00050 -0.08250 
-0.06850 0.11100 0.06950 
-0.01100 0.04600 0.12550 
0.10450 -0.03200 -0.14400 
0.04250 0.08300 -0.09850 
-0.06300 0.02350 -0.18100 
-0.06650 0.04550 -0.14900 
-0.04900 -0.00400 0.00150 
0.11450 0.09050 -0.06100 
0.03050 0.07500 -0.01800 
-0.12650 0.04800 -0.02650 
-0.03450 -0.01600 -0.07100 
-0.01900 -0.06850 -0.12750 
0.01700 0.05200 0.10600 
0.06000 0.06400 -0.06300 
0.00650 0.07250 0.04200 
0.00500 0.01950 -0.27900 
0.10050 0.03100 -0.03750 
-0.02100 0.00050 -0.09100 
0.02600 0.07900 -0.09350 
-0.03050 0.03650 -0.03550 
0.08150 0.11100 -0.00950 
0.10800 0.12700 -0.08050 
-0.03600 0.19450 -0.16150 
0.07500 -0.03000 0.01450 
-0.00950 -0.04550 -0.06400 
-0.01500 0.08500 -0.02800 
0.10500 0.01900 -0.04300 
0.15000 -0.05100 -0.13300 
0.15750 0.01800 0.00750 
-0.11450 0.02500 -0.18750 
-0.02800 -0.01850 -0.10350 
0.03700 0.06250 -0.07150 
0.03750 0.02650 0.01600 
0.00900 0.02250 -0.06750 
0.07100 -0.06650 -0.14150 
0.00500 0.07700 -0.11800 
0.04050 0.01400 0.00650 
-0.13600 -0.10850 -0.06050 
-0.05150 -0.04600 -0.08350 
0.02050 -0.09650 0.03800 
0.04850 -0.08500 -0.02550 
-0.05250 -0.12400 -0.03050 
0.03450 0.08200 -0.19700 
-0.07300 0.08350 0.04850 
0.08700 -0.01950 -0.10050 
0.07350 0.04150 -0.02750 
0.01100 0.08100 -0.07050 
-0.02850 0.00550 -0.18400 
-0.03850 0.01050 -0.01550 
0.02050 0.02250 -0.19950 
0.02850 0.03200 0.01000 
0.12850 0.01500 0.05200 
0.05500 0.11250 -0.13050 
-0.06850 0.16050 0.04350 
0.00900 0.02100 -0.12150 
-0.09850 -0.04650 -0.21900 
0.02050 0.27100 -0.01250 
-0.10250 0.01850 -0.14700 
-0.17300 0.03450 0.08300 
0.02600 -0.00100 0.07300 
0.08800 0.07900 0.02750 
0.01900 0.07250 0.06500 
-0.02900 -0.01000 -0.20200 
0.00300 0.20300 -0.21800 
-0.01400 0.00750 -0.09100 
0.12500 -0.03550 -0.29500 
0.14550 -0.00350 -0.05350 
0.00450 0.00500 -0.08850 
0.02450 0.05050 -0.21150 
0.05800 0.06750 -0.13300 
-0.01750 0.09500 0.04950 
0.04650 0.14950 0.00500 
-0.01850 0.02000 -0.09250 
-0.01100 0.05950 -0.10100 
-0.02850 -0.01050 -0.07300 
-0.07150 0.00700 -0.06650 
-0.07850 -0.00950 -0.13650 
0.10000 0.09050 -0.04450 
0.10600 0.12500 -0.06050 
0.04850 0.07400 -0.20950 
0.05550 0.01650 0.00850 
-0.08050 -0.00800 -0.15250 
-0.01450 0.02100 -0.04700 
-0.02250 0.03100 -0.17050 
-0.02650 0.05150 -0.03500 
-0.11750 0.02150 -0.15850 
-0.08100 -0.00200 -0.05250 
0.09950 -0.00900 -0.13700 
0.04050 -0.07000 -0.04700 
0.10550 -0.03450 0.04450 
0.03500 0.09650 0.00600 
0.09800 0.20950 -0.05400 
-0.06300 -0.04500 0.04950 
0.07450 -0.06650 -0.16000 
-0.01850 0.02250 -0.14200 
0.01750 0.00750 -0.02200 
0.09850 0.06200 0.03650 
0.00450 -0.07600 0.00900 
0.10600 0.09950 0.01450 
-0.02350 -0.09450 0.04100 
0.12050 -0.05300 -0.12650 
0.06250 0.01750 -0.22600 
0.04200 -0.05550 0.03600 
-0.06550 -0.13400 0.00350 
-0.10800 0.04250 -0.05600 
0.08450 0.13450 -0.07050 
-0.04150 -0.05750 -0.01150 
-0.04100 -0.06050 -0.03900 
-0.03400 0.07600 -0.06750 
-0.02250 0.13900 -0.00000 
0.08100 0.12950 0.02650 
0.01400 0.08950 -0.11700 
-0.01550 -0.18850 0.00150 
0.06700 0.00150 -0.16100 
-0.01250 0.04550 -0.19750 
-0.13650 -0.11600 -0.01400 
0.17300 0.08450 0.18250 
0.02450 0.03400 -0.16900 
0.04250 0.04900 0.02200 
0.00450 0.04150 -0.08750 
-0.03250 -0.02900 0.03200 
-0.04050 0.04850 -0.10250 
0.05200 -0.10150 -0.11300 
-0.02100 -0.01400 -0.19200 
0.00650 0.07050 -0.16600 
-0.05400 0.07100 -0.08400 
0.11400 0.01300 0.07200 
0.06000 -0.03300 -0.07250 
-0.04800 -0.02200 -0.14150 
0.06700 -0.03700 -0.12100 
-0.05650 0.06750 -0.10650 
-0.08550 -0.21500 -0.03200 
-0.04550 0.02600 -0.10050 
0.09650 -0.01450 -0.21050 
0.04400 0.02950 -0.10450 
-0.02550 0.05350 -0.13650 
0.12100 0.00800 -0.01600 
0.09150 0.12000 -0.04650 
0.01950 0.04500 -0.12450 
0.21200 0.10150 -0.06400 
0.02650 0.00300 -0.06600 
0.05850 0.03250 -0.03300 
-0.03600 -0.03150 -0.02450 
-0.16350 -0.03100 0.00450 
-0.01100 -0.04400 -0.02650 
-0.08850 0.06050 0.10650 
0.08250 -0.12350 -0.10750 
0.00500 -0.01750 0.06050 
-0.16350 -0.12450 0.08650 
0.04100 -0.07650 -0.09650 
0.02650 -0.05550 0.06150 
-0.00150 -0.11650 -0.03800 
0.01400 0.10900 -0.18350 
0.01450 0.18200 -0.05050 
0.01850 0.08650 0.06850 
0.04100 0.05300 -0.21550 
-0.10800 -0.04150 -0.17550 
-0.01050 -0.07700 -0.12800 
0.13150 -0.10100 -0.16450 
-0.04000 -0.00050 -0.00650 
0.06300 0.04250 -0.15250 
0.10600 0.02250 -0.07600 
0.15550 -0.05600 -0.08500 
0.08950 -0.00000 -0.17500 
-0.10850 0.07100 -0.02600 
0.01100 0.00700 -0.07100 
-0.10800 0.02600 -0.06350 
0.00100 0.06300 -0.11350 
-0.13950 0.03000 -0.03700 
-0.05650 0.05200 0.05150 
-0.03650 -0.03900 -0.15800 
0.06700 0.09600 -0.26550 
-0.07800 0.02800 -0.03950 
0.00850 0.18800 -0.04050 
-0.02450 -0.01800 -0.01000 
0.08000 0.11450 -0.10050 
0.03900 0.00650 0.04000 
0.06900 0.02650 0.04600 
0.05100 0.07000 -0.17000 
0.08500 0.11150 0.19350 
0.13050 -0.01400 0.05600 
-0.02300 0.03900 -0.07400 
0.01450 0.02050 0.01700 
0.07350 0.11100 0.02750 
0.01100 0.14700 0.11050 
-0.02200 -0.12400 -0.14650 
-0.01400 -0.08500 0.09750 
0.03700 0.00750 0.00850 
-0.00350 0.13800 -0.24450 
0.06600 0.11000 0.07650 
0.07550 -0.13050 -0.08000 
0.08450 -0.14200 -0.10700 
0.12150 0.17100 -0.18600 
-0.01000 -0.01650 -0.03500 
0.06450 0.05200 0.06800 
0.01000 0.13500 -0.02700 
0.08450 -0.05200 0.08300 
0.05250 -0.00200 -0.16750 
-0.01550 -0.00250 -0.27550 
-0.02200 -0.00350 -0.02600 
-0.08600 0.03550 -0.06300 
0.00900 -0.01500 -0.07800 
-0.04400 -0.03000 -0.15550 
-0.05050 0.05650 -0.08300 
-0.01850 0.03650 -0.05150 
0.02400 -0.01900 0.07550 
0.04000 0.01050 -0.15050 
0.10200 0.24800 -0.14250 
0.07650 0.17850 0.07150 
0.06850 0.01650 -0.10950 
0.10850 0.04850 -0.03650 
-0.00150 0.07450 -0.07650 
-0.03650 0.04350 0.06250 
0.10950 -0.04200 0.07600 
0.03800 0.05850 -0.04700 
0.01500 0.06100 -0.10800 
0.07550 -0.12000 -0.07750 
-0.01100 -0.00800 -0.04250 
0.00100 0.13650 -0.15200 
-0.00600 0.02500 0.01100 
-0.16750 0.02750 0.12300 
0.05000 0.08550 -0.11700 
0.02050 0.07550 0.00800 
0.08950 0.06100 -0.03950 
0.07600 -0.07800 -0.07600 
0.01750 0.04450 -0.08550 
-0.01000 0.13900 -0.13100 
-0.00500 -0.01000 -0.07750 
-0.03300 -0.07750 -0.02650 
-0.07200 -0.11900 -0.07200 
0.06050 -0.01250 -0.10950 
0.00700 -0.03450 -0.10400 
-0.07550 -0.04550 -0.12250 
-0.05500 -0.14800 0.12650 
-0.00000 -0.10900 0.10200 
0.10500 0.01100 0.04150 
-0.03100 0.20450 0.07050 
-0.13900 0.08400 -0.01200 
0.05250 -0.05250 0.06450 
0.07250 0.03050 -0.04400 
-0.01500 -0.12150 0.00750 
0.01050 0.07250 -0.07500 
0.02950 0.07350 -0.17350 
-0.02650 -0.10300 -0.15350 
-0.01850 0.02050 -0.08100 
0.00100 0.09800 -0.13900 
-0.02150 0.05650 0.04000 
0.06150 -0.13300 0.07950 
0.00550 -0.08000 -0.19750 
0.03350 0.09850 -0.16650 
-0.08250 -0.00150 -0.07650 
-0.09950 0.07300 0.02550 
0.02550 -0.03050 -0.03350 
0.00700 0.08300 -0.22050 
-0.02900 0.00750 -0.02450 
-0.05750 0.00950 0.01650 
0.00600 -0.04900 -0.06350 
0.00050 0.03350 -0.03400 
-0.11700 -0.02450 0.02650 
0.00550 -0.03100 -0.19450 
-0.05400 -0.01600 -0.06500 
-0.13000 0.06250 0.00850 
-0.09000 0.01750 0.04650 
-0.03650 0.07150 -0.00150 
0.05300 0.01450 -0.02550 
-0.16000 0.05750 -0.20100 
-0.07200 0.03650 -0.19150 
-0.01700 -0.08900 -0.09900 
0.04900 -0.02550 -0.08350 
0.00100 0.12950 -0.04500 
0.08850 0.01850 0.03350 
0.05000 0.15300 0.04300 
0.06050 -0.08800 0.08550 
-0.02450 0.10600 0.03550 
0.03900 0.03350 -0.11850 
0.06650 0.01850 0.04100 
-0.05000 0.07100 -0.12300 
0.12950 0.02150 -0.06600 
0.15900 0.05200 -0.20900 
-0.01300 0.07300 0.02100 
-0.04600 -0.00450 -0.04500 
-0.03600 0.14000 0.04250 
-0.05750 0.18200 -0.01550 
0.01800 0.02700 -0.11650 
0.08900 0.17650 -0.07850 
-0.18200 -0.08100 0.05850 
0.06000 0.01450 -0.08800 
0.06050 0.01900 0.08850 
-0.01200 -0.14400 -0.00650 
0.03150 0.01750 0.03800 
-0.00700 -0.07000 -0.20350 
0.15050 -0.00800 0.04100 
0.03250 0.10350 0.15350 
0.04550 -0.00950 -0.16800 
0.00850 0.02800 -0.02800 
-0.02650 0.04250 -0.13100 
0.00350 0.08450 -0.04850 
0.02200 0.02250 -0.11150 
0.01700 0.00950 -0.15500 
0.12350 -0.08550 -0.12000 
0.00300 0.04250 -0.04400 
0.04800 -0.03200 -0.12500 
0.08950 -0.08800 -0.04000 
-0.02050 0.00650 -0.18150 
-0.01700 0.14400 0.14000 
0.07400 0.04300 -0.18350 
0.05750 0.04050 -0.02650 
0.22900 -0.03600 -0.19950 
-0.17700 0.08850 -0.10700 
-0.00850 -0.04300 -0.20850 
-0.00100 0.02750 -0.12800 
-0.12100 0.04400 0.19400 
0.05500 0.15800 0.02350 
-0.05000 -0.04800 0.05000 
0.19450 -0.11050 -0.17450 
0.03800 0.06350 -0.01000 
0.07550 0.04300 0.04450 
-0.13900 0.01700 -0.24550 
0.08150 0.10050 -0.16650 
0.04950 0.02300 -0.00650 
0.12750 0.01800 -0.15500 
-0.07500 -0.01500 -0.15100 
0.10100 -0.01850 -0.19150 
0.08200 0.00700 -0.06450 
0.08150 -0.14350 -0.12150 
-0.04400 -0.22500 -0.10400 
0.10650 -0.01750 0.03450 
0.02650 0.08000 0.06900 
0.08700 0.00850 -0.13350 
0.19550 0.02650 -0.08700 
0.04750 0.01400 -0.07850 
-0.00850 0.15050 0.09350 
0.04150 0.07450 -0.20500 
0.15700 0.05050 -0.03750 
-0.03050 0.03150 -0.01900 
0.00050 0.05000 -0.11450 
-0.00400 -0.00600 -0.16850 
-0.06850 -0.07050 0.11250 
0.01000 0.11050 -0.02050 
0.11100 0.13150 -0.17850 
-0.12250 -0.00300 -0.11000 
-0.03350 -0.04550 0.01950 
0.05800 -0.10400 -0.03500 
0.01100 0.05750 0.06650 
0.04200 -0.03600 -0.01650 
0.08150 0.10700 0.04600 
0.06100 -0.00300 0.04700 
0.14000 0.12700 -0.08400 
0.01300 -0.03350 -0.06550 
0.11250 -0.11800 -0.27200 
0.09350 0.05000 -0.22500 
-0.03600 -0.01750 -0.13700 
0.12850 0.22100 0.07150 
0.08550 0.07050 0.06900 
0.03600 0.09300 -0.07900 
0.05550 -0.03900 -0.15950 
0.13200 0.18000 -0.21000 
-0.08050 0.04900 -0.03850 
-0.23700 -0.02050 -0.16900 
-0.05050 -0.16350 0.00600 
0.06350 0.08000 -0.05450 
0.00050 0.06250 -0.11200 
0.08950 0.05950 -0.02250 
0.10400 0.18800 -0.11400 
0.13550 0.05700 0.02400 
0.00300 0.14200 0.05650 
0.06600 0.03750 -0.15550 
0.05650 -0.02500 -0.19350 
-0.05250 -0.06650 -0.03700 
0.06850 0.07200 -0.25700 
-0.04550 0.05750 -0.00300 
0.06900 -0.00050 -0.03450 
0.00200 0.13550 0.00950 
0.06200 0.14950 -0.07250 
-0.14700 0.12750 0.09050 
0.15900 -0.03600 0.21100 
-0.02600 -0.07100 -0.06000 
0.04450 0.06600 -0.09200 
0.02100 0.14100 -0.14500 
0.09600 -0.03600 -0.00700 
-0.04900 0.11850 -0.07850 
0.01200 0.08400 -0.11600 
0.03850 0.09450 -0.01600 
-0.01050 0.04950 -0.23100 
0.11900 0.02900 -0.00400 
-0.05550 -0.10900 -0.07000 
-0.00700 -0.06450 0.01350 
-0.07200 -0.04250 -0.02600 
0.00900 0.28300 0.00950 
-0.07200 0.03250 -0.01150 