# vtk DataFile Version 2.1 
Trajects from timestep 88 with color option 
ASCII 
 
DATASET POLYDATA POINTS 990 float 
-8.281 3.646 -72.444 
-8.158 3.707 -72.502 
-0.561 0.719 -69.663 
-0.569 0.966 -69.567 
3.360 9.620 -70.720 
3.353 9.902 -70.823 
-4.978 1.794 -70.005 
-4.926 2.080 -70.003 
2.235 -1.326 -73.723 
2.254 -1.088 -73.651 
-6.725 -5.458 -71.047 
-6.709 -5.219 -71.146 
5.664 1.091 -69.987 
5.726 1.384 -70.129 
-7.179 -1.098 -70.512 
-7.131 -0.956 -70.482 
0.887 9.717 -66.714 
0.919 10.095 -66.774 
7.757 3.959 -70.066 
7.754 4.183 -70.285 
-7.263 -4.394 -71.341 
-7.149 -4.097 -71.404 
8.955 8.958 -72.033 
8.956 9.073 -72.225 
-5.353 7.879 -71.444 
-5.283 7.996 -71.332 
2.764 8.951 -70.605 
2.841 9.223 -70.648 
-7.932 4.069 -66.338 
-7.846 4.333 -66.108 
-10.986 -3.219 -74.462 
-11.095 -3.081 -74.426 
-2.078 7.499 -69.873 
-1.973 7.644 -69.897 
4.118 9.355 -66.706 
4.166 9.580 -66.705 
-9.958 -2.848 -70.848 
-9.938 -2.729 -70.880 
2.108 5.585 -69.605 
2.075 5.884 -69.552 
-2.116 -10.254 -71.802 
-2.156 -10.127 -71.879 
-5.560 9.134 -69.246 
-5.519 9.365 -69.284 
-2.265 7.931 -66.261 
-2.254 8.137 -66.213 
1.522 -10.174 -72.760 
1.636 -9.856 -73.022 
-2.929 -2.666 -70.035 
-2.805 -2.419 -70.065 
9.102 -3.743 -70.361 
9.261 -3.598 -70.607 
-1.974 1.618 -69.279 
-1.887 1.780 -69.340 
14.396 3.348 -69.248 
14.509 3.387 -69.300 
0.116 6.541 -66.342 
0.157 6.786 -66.219 
-4.688 0.374 -68.248 
-4.661 0.752 -68.295 
-9.939 -1.469 -71.743 
-9.955 -1.252 -71.693 
1.294 9.771 -71.933 
1.148 9.991 -71.948 
-4.548 -6.780 -71.100 
-4.521 -6.517 -71.085 
0.338 9.253 -71.747 
0.190 9.354 -71.730 
0.910 3.066 -65.981 
1.008 3.362 -66.068 
-10.474 -5.363 -68.032 
-10.549 -5.066 -68.137 
1.376 12.391 -69.691 
1.244 12.613 -69.729 
3.844 12.137 -68.288 
3.728 12.355 -68.292 
15.775 1.452 -72.661 
15.899 1.433 -72.761 
10.723 6.116 -68.034 
10.716 6.181 -68.215 
-6.644 9.286 -66.909 
-6.382 9.531 -67.018 
-0.928 -10.609 -72.030 
-0.877 -10.455 -72.177 
1.217 4.542 -70.170 
1.321 4.721 -70.073 
-10.729 -9.506 -69.358 
-10.735 -9.335 -69.637 
9.670 1.244 -71.338 
9.704 1.497 -71.367 
11.014 -2.175 -73.461 
11.087 -2.100 -73.573 
4.824 6.695 -68.967 
4.840 6.937 -69.077 
-2.255 -0.689 -73.822 
-2.306 -0.444 -73.835 
-10.617 11.368 -71.001 
-10.505 11.462 -71.008 
-5.787 5.853 -65.771 
-5.606 6.134 -65.665 
5.844 6.879 -71.823 
5.814 7.061 -71.851 
-12.649 1.631 -70.864 
-12.629 1.793 -70.878 
-6.189 -0.762 -68.165 
-6.107 -0.534 -68.171 
2.112 6.829 -68.431 
2.043 7.010 -68.367 
-2.103 -5.707 -69.309 
-1.959 -5.536 -69.460 
-5.052 -7.606 -68.290 
-5.023 -7.284 -68.150 
3.325 -7.528 -66.135 
3.416 -7.321 -66.449 
-0.250 2.241 -64.066 
-0.048 2.351 -64.139 
8.339 -5.302 -69.217 
8.561 -5.194 -69.374 
2.340 -9.873 -71.355 
2.545 -9.782 -71.538 
-2.828 5.393 -66.270 
-2.716 5.608 -66.206 
-5.806 -3.921 -68.402 
-5.576 -3.776 -68.518 
9.968 -5.875 -73.324 
10.028 -5.904 -73.509 
5.931 0.107 -73.440 
5.926 0.325 -73.610 
-7.380 1.530 -66.415 
-7.250 1.747 -66.417 
2.437 -6.751 -67.117 
2.512 -6.537 -67.302 
-1.742 1.140 -71.478 
-1.546 1.378 -71.562 
1.780 -3.592 -65.513 
1.923 -3.432 -65.694 
1.322 -4.271 -65.879 
1.450 -4.124 -66.082 
-1.238 3.244 -66.871 
-1.176 3.503 -66.756 
2.818 -8.034 -70.749 
2.963 -7.957 -70.860 
2.205 4.428 -63.597 
2.316 4.709 -63.535 
-11.646 8.527 -70.358 
-11.479 8.588 -70.293 
5.215 -10.364 -71.478 
5.391 -10.288 -71.587 
5.702 -5.069 -65.268 
5.818 -4.694 -65.473 
-0.842 1.979 -64.976 
-0.626 2.261 -64.953 
2.125 -6.288 -67.106 
2.225 -6.063 -67.346 
-4.637 2.484 -70.163 
-4.519 2.790 -70.148 
5.355 7.635 -68.037 
5.468 7.833 -68.084 
-10.497 -1.045 -75.504 
-10.615 -1.073 -75.464 
-1.724 12.634 -68.296 
-1.722 12.872 -68.383 
6.838 7.803 -67.948 
6.800 7.886 -68.129 
-12.297 8.256 -66.248 
-12.192 8.337 -66.228 
-7.152 9.882 -75.907 
-7.226 9.962 -75.972 
3.173 0.394 -73.698 
3.257 0.665 -73.861 
0.202 8.045 -63.399 
0.376 8.415 -63.398 
-0.615 -5.670 -71.762 
-0.482 -5.514 -71.934 
-6.640 -8.055 -67.401 
-6.591 -7.881 -67.413 
-7.476 12.336 -71.949 
-7.446 12.467 -72.029 
3.086 7.841 -73.839 
3.136 8.078 -73.976 
2.818 -4.231 -66.513 
2.945 -4.111 -66.775 
-7.929 -5.880 -70.873 
-7.838 -5.593 -70.928 
7.043 -6.012 -68.656 
7.212 -5.944 -68.656 
5.929 11.467 -65.342 
5.995 11.719 -65.324 
-9.593 9.335 -65.511 
-9.428 9.551 -65.334 
0.366 12.481 -64.323 
0.476 12.693 -64.337 
-10.833 -4.590 -70.184 
-10.737 -4.337 -70.376 
-4.375 -0.054 -74.017 
-4.267 0.143 -73.894 
11.853 0.381 -67.467 
11.970 0.514 -67.652 
0.240 10.916 -62.778 
0.333 11.145 -62.945 
-0.958 3.213 -69.052 
-0.844 3.440 -69.035 
12.569 7.309 -68.253 
12.627 7.369 -68.285 
3.831 0.655 -66.531 
4.034 0.916 -66.587 
-6.500 3.598 -70.961 
-6.367 3.659 -70.901 
-3.429 11.972 -67.985 
-3.409 12.146 -68.015 
-2.231 9.377 -67.379 
-2.133 9.634 -67.355 
-2.518 0.453 -66.598 
-2.384 0.661 -66.510 
7.518 3.094 -65.504 
7.709 3.226 -65.552 
7.385 -5.231 -64.646 
7.430 -5.033 -64.568 
-2.393 6.890 -75.144 
-2.385 7.000 -75.282 
7.535 -8.029 -66.685 
7.592 -7.980 -66.769 
-0.115 -9.602 -66.874 
0.063 -9.386 -67.069 
-13.486 0.883 -74.783 
-13.338 1.059 -74.942 
4.239 -3.464 -62.158 
4.413 -3.236 -62.366 
-10.465 -9.227 -76.081 
-10.214 -8.895 -75.756 
5.200 2.853 -69.296 
5.201 3.080 -69.524 
10.295 -2.811 -67.670 
10.345 -2.770 -67.736 
4.121 11.261 -67.292 
4.129 11.460 -67.350 
3.857 -7.715 -65.969 
3.960 -7.494 -66.281 
4.087 4.309 -65.026 
4.279 4.528 -64.932 
-2.287 2.898 -71.255 
-2.124 3.153 -71.253 
-13.507 8.446 -69.915 
-13.357 8.493 -69.936 
3.847 -4.421 -75.897 
3.918 -4.235 -75.948 
2.506 -2.168 -64.648 
2.665 -1.957 -64.859 
-6.019 6.356 -64.821 
-5.959 6.676 -64.751 
-9.338 12.310 -64.072 
-9.242 12.470 -64.109 
11.814 -5.775 -70.239 
11.956 -5.676 -70.202 
9.870 8.741 -68.074 
9.947 8.809 -68.039 
5.155 6.526 -65.001 
5.334 6.732 -65.244 
3.672 11.677 -73.794 
3.411 11.819 -74.036 
-2.704 8.357 -65.867 
-2.689 8.616 -65.795 
-9.415 2.825 -63.739 
-9.464 3.022 -63.933 
-0.126 -1.721 -68.778 
0.000 -1.473 -68.866 
2.715 -4.339 -64.075 
2.794 -4.109 -64.329 
-0.669 1.707 -68.776 
-0.545 1.906 -68.700 
-5.901 -10.266 -66.130 
-5.764 -10.139 -66.188 
3.403 3.821 -69.371 
3.477 4.221 -69.404 
-10.848 -6.777 -73.142 
-10.666 -6.603 -73.374 
2.970 7.154 -71.877 
2.855 7.424 -72.008 
-11.463 2.290 -73.020 
-11.336 2.433 -73.147 
-7.673 -12.086 -75.025 
-7.627 -12.084 -74.996 
7.603 -10.748 -74.250 
7.707 -10.785 -74.419 
-6.005 0.286 -63.202 
-5.937 0.467 -63.355 
-9.133 7.888 -69.016 
-8.960 7.893 -69.038 
9.506 -10.423 -67.916 
9.617 -10.306 -67.881 
-3.809 -7.640 -65.703 
-3.612 -7.460 -65.807 
-14.607 4.662 -69.775 
-14.618 4.654 -69.838 
-13.490 11.674 -74.834 
-13.448 11.762 -74.866 
-5.054 8.175 -65.757 
-4.835 8.415 -65.871 
-13.474 2.582 -70.606 
-13.340 2.774 -70.733 
11.571 -2.448 -65.395 
11.639 -2.341 -65.441 
11.767 2.815 -64.222 
11.921 3.030 -64.416 
14.351 -0.862 -72.965 
14.399 -0.793 -73.086 
-4.227 3.296 -61.174 
-4.164 3.426 -61.030 
2.366 11.075 -68.336 
2.407 11.290 -68.472 
-1.068 -10.838 -69.025 
-0.863 -10.671 -69.239 
5.145 -0.853 -66.904 
5.344 -0.618 -67.143 
-0.813 -2.309 -67.936 
-0.641 -2.073 -67.971 
11.076 0.077 -73.769 
11.048 0.197 -73.775 
8.359 -6.708 -64.793 
8.379 -6.523 -64.946 
-11.383 2.305 -65.535 
-11.471 2.605 -65.742 
9.222 -8.263 -69.251 
9.357 -7.999 -69.072 
-0.274 -7.640 -75.134 
-0.188 -7.578 -75.190 
-3.486 6.954 -66.229 
-3.380 7.171 -66.296 
-10.415 4.887 -67.664 
-10.243 5.046 -67.672 
-14.682 -0.429 -72.929 
-14.501 -0.155 -72.980 
-3.857 8.339 -71.915 
-3.870 8.409 -71.976 
-6.329 11.718 -63.956 
-6.381 11.908 -63.903 
-3.092 -2.461 -66.602 
-2.954 -2.263 -66.543 
6.722 4.019 -72.891 
6.790 4.383 -73.047 
16.083 7.995 -68.871 
16.136 8.092 -68.929 
-13.823 9.939 -72.537 
-13.785 10.064 -72.555 
-13.562 -2.127 -66.281 
-13.556 -1.976 -66.388 
-6.361 -11.818 -67.263 
-6.175 -11.668 -67.302 
-11.156 -0.933 -66.770 
-11.057 -0.708 -66.891 
13.855 -0.246 -69.290 
14.221 -0.138 -69.446 
7.084 2.867 -66.275 
7.266 2.993 -66.423 
-0.215 -7.374 -65.972 
-0.052 -7.208 -66.163 
8.953 9.542 -66.902 
9.004 9.697 -66.912 
-7.422 10.396 -66.771 
-7.333 10.535 -66.736 
-4.805 6.105 -61.366 
-4.847 6.398 -61.329 
-12.248 -5.629 -73.350 
-12.122 -5.454 -73.523 
4.248 -10.638 -71.426 
4.476 -10.542 -71.663 
-4.834 9.145 -70.384 
-4.854 9.309 -70.482 
7.207 -8.362 -67.631 
7.393 -8.154 -67.647 
12.551 2.936 -64.352 
12.749 3.078 -64.557 
-14.276 -6.293 -75.976 
-14.306 -6.098 -76.261 
-8.840 8.488 -67.491 
-8.613 8.728 -67.554 
5.354 9.470 -72.587 
5.331 9.493 -72.711 
-3.986 -11.347 -67.367 
-3.830 -11.197 -67.481 
10.536 0.777 -68.962 
10.626 0.909 -69.109 
9.916 10.350 -67.832 
9.841 10.510 -67.935 
9.496 1.249 -62.388 
9.652 1.518 -62.629 
8.216 -12.517 -72.720 
8.467 -12.513 -72.869 
-5.764 5.386 -75.664 
-5.712 5.410 -75.669 
-5.035 1.945 -71.533 
-4.868 2.068 -71.494 
-8.343 12.647 -70.234 
-8.188 12.714 -70.371 
1.164 -2.629 -72.187 
1.128 -2.442 -72.234 
2.203 -0.775 -63.506 
2.371 -0.618 -63.576 
11.919 2.879 -67.507 
11.996 3.088 -67.623 
13.375 -0.470 -62.724 
13.413 -0.199 -62.835 
4.869 4.296 -69.548 
4.890 4.529 -69.690 
5.677 3.895 -70.102 
5.612 4.151 -70.306 
-0.377 -1.022 -61.264 
-0.253 -0.851 -61.376 
6.281 -0.656 -72.083 
6.429 -0.453 -72.290 
-4.607 11.871 -64.668 
-4.534 12.103 -64.678 
-1.162 -2.961 -67.356 
-0.968 -2.694 -67.468 
-16.165 -4.364 -72.729 
-16.149 -4.246 -72.946 
10.435 -7.299 -70.087 
10.673 -7.165 -70.109 
16.512 -3.098 -68.762 
16.423 -3.052 -68.792 
-4.489 -12.364 -65.568 
-4.314 -12.269 -65.846 
9.250 2.013 -72.451 
9.316 2.339 -72.488 
-9.307 -2.894 -67.676 
-9.095 -2.739 -67.814 
6.419 6.528 -64.592 
6.604 6.829 -64.646 
-3.771 -10.978 -75.398 
-3.756 -10.877 -75.317 
5.514 -4.284 -61.664 
5.597 -4.016 -61.768 
4.004 -10.350 -70.039 
4.259 -10.221 -70.200 
11.296 10.526 -69.283 
11.143 10.479 -69.415 
-12.581 6.632 -69.317 
-12.440 6.710 -69.261 
4.913 7.038 -76.938 
4.781 7.025 -77.016 
2.141 -2.600 -72.215 
2.185 -2.347 -72.326 
[...]
POINT_DATA 990 
SCALARS Umean double 1 
LOOKUP_TABLE default
0.07452 
0.07452 
0.13256 
0.13256 
0.15015 
0.15015 
0.14535 
0.14535 
0.12469 
0.12469 
0.12959 
0.12959 
0.16572 
0.16572 
0.07643 
0.07643 
0.19203 
0.19203 
0.15664 
0.15664 
0.16215 
0.16215 
0.11190 
0.11190 
0.08822 
0.08822 
0.14297 
0.14297 
0.18027 
0.18027 
0.08975 
0.08975 
0.09031 
0.09031 
0.11503 
0.11503 
0.06242 
0.06242 
0.15272 
0.15272 
0.07691 
0.07691 
0.11883 
0.11883 
0.10590 
0.10590 
0.21375 
0.21375 
0.13900 
0.13900 
0.16342 
0.16342 
0.09687 
0.09687 
0.06518 
0.06518 
0.13860 
0.13860 
0.19093 
0.19093 
0.11163 
0.11163 
0.13223 
0.13223 
0.13240 
0.13240 
0.08999 
0.08999 
0.16186 
0.16186 
0.16191 
0.16191 
0.13053 
0.13053 
0.12349 
0.12349 
0.08021 
0.08021 
0.09622 
0.09622 
0.18745 
0.18745 
0.10946 
0.10946 
0.11431 
0.11431 
0.16364 
0.16364 
0.12846 
0.12846 
0.07665 
0.07665 
0.13315 
0.13315 
0.12529 
0.12529 
0.07319 
0.07319 
0.17533 
0.17533 
0.09328 
0.09328 
0.08191 
0.08191 
0.12119 
0.12119 
0.10200 
0.10200 
0.13489 
0.13489 
0.17616 
0.17616 
0.19347 
0.19347 
0.12066 
0.12066 
0.14628 
0.14628 
0.14474 
0.14474 
0.12536 
0.12536 
0.14780 
0.14780 
0.09832 
0.09832 
0.13825 
0.13825 
0.12648 
0.12648 
0.14633 
0.14633 
0.15978 
0.15978 
0.14037 
0.14037 
0.14071 
0.14071 
0.14504 
0.14504 
0.09909 
0.09909 
0.15421 
0.15421 
0.09465 
0.09465 
0.11026 
0.11026 
0.22142 
0.22142 
0.17798 
0.17798 
0.17192 
0.17192 
0.16415 
0.16415 
0.11639 
0.11639 
0.06385 
0.06385 
0.12671 
0.12671 
0.10136 
0.10136 
0.06706 
0.06706 
0.06344 
0.06344 
0.16360 
0.16360 
0.20444 
0.20444 
0.13380 
0.13380 
0.09058 
0.09058 
0.07820 
0.07820 
0.13914 
0.13914 
0.15746 
0.15746 
0.15303 
0.15303 
0.09108 
0.09108 
0.13056 
0.13056 
0.16218 
0.16218 
0.11962 
0.11962 
0.16590 
0.16590 
0.12806 
0.12806 
0.12807 
0.12807 
0.14915 
0.14915 
0.12729 
0.12729 
0.04469 
0.04469 
0.16768 
0.16768 
0.07907 
0.07907 
0.08885 
0.08885 
0.13805 
0.13805 
0.13130 
0.13130 
0.11854 
0.11854 
0.10876 
0.10876 
0.08833 
0.08833 
0.05636 
0.05636 
0.17056 
0.17056 
0.13979 
0.13979 
0.17715 
0.17715 
0.26403 
0.26403 
0.16087 
0.16087 
0.04620 
0.04620 
0.10372 
0.10372 
0.19799 
0.19799 
0.15302 
0.15302 
0.15133 
0.15133 
0.07929 
0.07929 
0.10276 
0.10276 
0.16906 
0.16906 
0.16651 
0.16651 
0.09511 
0.09511 
0.08851 
0.08851 
0.05426 
0.05426 
0.18271 
0.18271 
0.19160 
0.19160 
0.13462 
0.13462 
0.14040 
0.14040 
0.14588 
0.14588 
0.17582 
0.17582 
0.12324 
0.12324 
0.09780 
0.09780 
0.20406 
0.20406 
0.17119 
0.17119 
0.16069 
0.16069 
0.11479 
0.11479 
0.02721 
0.02721 
0.10093 
0.10093 
0.12328 
0.12328 
0.08723 
0.08723 
0.08252 
0.08252 
0.14320 
0.14320 
0.03223 
0.03223 
0.05131 
0.05131 
0.17216 
0.17216 
0.13318 
0.13318 
0.06743 
0.06743 
0.16399 
0.16399 
0.07366 
0.07366 
0.10199 
0.10199 
0.12884 
0.12884 
0.17008 
0.17008 
0.19490 
0.19490 
0.14706 
0.14706 
0.06168 
0.06168 
0.12045 
0.12045 
0.18748 
0.18748 
0.17318 
0.17318 
0.05995 
0.05995 
0.12531 
0.12531 
0.11718 
0.11718 
0.16616 
0.16616 
0.04688 
0.04688 
0.10200 
0.10200 
0.12423 
0.12423 
0.20091 
0.20091 
0.06241 
0.06241 
0.06594 
0.06594 
0.09258 
0.09258 
0.12105 
0.12105 
0.13699 
0.13699 
0.20613 
0.20613 
0.13314 
0.13314 
0.15050 
0.15050 
0.08174 
0.08174 
0.08436 
0.08436 
0.14915 
0.14915 
0.13823 
0.13823 
0.17130 
0.17130 
0.09605 
0.09605 
0.13975 
0.13975 
0.15921 
0.15921 
0.17331 
0.17331 
0.16815 
0.16815 
0.06410 
0.06410 
0.12230 
0.12230 
0.10855 
0.10855 
0.10227 
0.10227 
0.19671 
0.19671 
0.14596 
0.14596 
0.02874 
0.02874 
0.10552 
0.10552 
0.10872 
0.10872 
0.09807 
0.09807 
0.12018 
0.12018 
0.12556 
0.12556 
0.14765 
0.14765 
0.13683 
0.13683 
0.16687 
0.16687 
0.11954 
0.11954 
0.16276 
0.16276 
0.12171 
0.12171 
0.17426 
0.17426 
0.12376 
0.12376 
0.13701 
0.13701 
0.05229 
0.05229 
0.17098 
0.17098 
0.16733 
0.16733 
0.14833 
0.14833 
0.17871 
0.17871 
0.06517 
0.06517 
0.14961 
0.14961 
0.16400 
0.16400 
0.10373 
0.10373 
0.08530 
0.08530 
0.07694 
0.07694 
0.13988 
0.13988 
0.15764 
0.15764 
0.03252 
0.03252 
0.10807 
0.10807 
0.15202 
0.15202 
0.07316 
0.07316 
0.07431 
0.07431 
0.04184 
0.04184 
0.19852 
0.19852 
0.14549 
0.14549 
0.07857 
0.07857 
0.17938 
0.17938 
0.09153 
0.09153 
0.11446 
0.11446 
0.08628 
0.08628 
0.03459 
0.03459 
0.13014 
0.13014 
0.07733 
0.07733 
0.20342 
0.20342 
0.12125 
0.12125 
0.17598 
0.17598 
0.21630 
0.21630 
0.06056 
0.06056 
0.14264 
0.14264 
0.12435 
0.12435 
0.18297 
0.18297 
0.11362 
0.11362 
0.05232 
0.05232 
0.08312 
0.08312 
0.15139 
0.15139 
0.13506 
0.13506 
0.09886 
0.09886 
0.22902 
0.22902 
0.05345 
0.05345 
0.07148 
0.07148 
0.13205 
0.13205 
0.18843 
0.18843 
0.22542 
0.22542 
0.10346 
0.10346 
0.06377 
0.06377 
0.06788 
0.06788 
0.13713 
0.13713 
0.09092 
0.09092 
0.10999 
0.10999 
0.06440 
0.06440 
0.04047 
0.04047 
0.07565 
0.07565 
0.20229 
0.20229 
0.07577 
0.07577 
0.16131 
0.16131 
0.11974 
0.11974 
0.18494 
0.18494 
0.14965 
0.14965 
0.13722 
0.13722 
0.09740 
0.09740 
0.08269 
0.08269 
0.11561 
0.11561 
0.15915 
0.15915 
0.04798 
0.04798 
0.15622 
0.15622 
0.09324 
0.09324 
0.05121 
0.05121 
0.19868 
0.19868 
0.16099 
0.16099 
0.06217 
0.06217 
0.03984 
0.03984 
0.14302 
0.14302 
0.10618 
0.10618 
0.03570 
0.03570 
0.16016 
0.16016 
0.06671 
0.06671 
0.05057 
0.05057 
0.06507 
0.06507 
0.04087 
0.04087 
0.09753 
0.09753 
0.15871 
0.15871 
0.14156 
0.14156 
0.18883 
0.18883 
0.05572 
0.05572 
0.14823 
0.14823 
0.07670 
0.07670 
0.06808 
0.06808 
0.07959 
0.07959 
0.05019 
0.05019 
0.08856 
0.08856 
0.13069 
0.13069 
0.13056 
0.13056 
0.14274 
0.14274 
0.20583 
0.20583 
0.17304 
0.17304 
0.11917 
0.11917 
0.17084 
0.17084 
0.16417 
0.16417 
0.07614 
0.07614 
0.18398 
0.18398 
0.17176 
0.17176 
0.21949 
0.21949 
0.14360 
0.14360 
0.15909 
0.15909 
0.10417 
0.10417 
0.19006 
0.19006 
0.14878 
0.14878 
0.06754 
0.06754 
0.12392 
0.12392 
0.06948 
0.06948 
0.12400 
0.12400 
0.06679 
0.06679 
0.18116 
0.18116 
0.10453 
0.10453 
0.15399 
0.15399 
0.12939 
0.12939 
0.06508 
0.06508 
0.20415 
0.20415 
0.14775 
0.14775 
0.13192 
0.13192 
0.06924 
0.06924 
0.07734 
0.07734 
0.11904 
0.11904 
0.10141 
0.10141 
0.09136 
0.09136 
0.08063 
0.08063 
0.14607 
0.14607 
0.23010 
0.23010 
0.08648 
0.08648 
0.14273 
0.14273 
0.12578 
0.12578 
0.14357 
0.14357 
0.18254 
0.18254 
0.16531 
0.16531 
0.11851 
0.11851 
0.06872 
0.06872 
0.10419 
0.10419 
0.06995 
0.06995 
0.16688 
0.16688 
0.15611 
0.15611 
0.16858 
0.16858 
0.15510 
0.15510 
0.19298 
0.19298 
0.17130 
0.17130 
0.17579 
0.17579 
0.15016 
0.15016 
0.16063 
0.16063 
0.09490 
0.09490 
0.02233 
0.02233 
0.17091 
0.17091 
0.16922 
0.16922 
0.05552 
0.05552 
0.12472 
0.12472 
0.07794 
0.07794 
0.12061 
0.12061 
0.16086 
0.16086 
0.09641 
0.09641 
0.06438 
0.06438 
0.10949 
0.10949 
0.03434 
0.03434 
0.16999 
0.16999 
0.20440 
0.20440 
0.09963 
0.09963 
0.12807 
0.12807 
0.18275 
0.18275 
0.14441 
0.14441 
0.19956 
0.19956 
0.14549 
0.14549 
0.24673 
0.24673 
0.09484 
0.09484 
0.04254 
0.04254 
0.07168 
0.07168 
0.09597 
0.09597 
0.16962 
0.16962 
0.03859 
0.03859 
0.19067 
0.19067 
0.11491 
0.11491 
0.12054 
0.12054 
0.19909 
0.19909 
0.06568 
0.06568 
0.11253 
0.11253 
0.11987 
0.11987 
0.13613 
0.13613 
0.07805 
0.07805 
0.12270 
0.12270 
0.20464 
0.20464 
0.09792 
0.09792 
0.04975 
0.04975 
0.12300 
0.12300 
0.06516 
0.06516 
0.12287 
0.12287 
0.13481 
0.13481 
0.22000 
0.22000 
0.11087 
0.11087 
0.13244 
0.13244 
0.12762 
0.12762 
0.09062 
0.09062 
0.16587 
0.16587 
0.09747 
0.09747 
0.13976 
0.13976 
0.09501 
0.09501 
0.13817 
0.13817 
0.16386 
0.16386 
0.10065 
0.10065 
0.06233 
0.06233 
0.08525 
0.08525 
0.08611 
0.08611 
0.12046 
0.12046 
0.06983 
0.06983 
0.11671 
0.11671 
0.09694 
0.09694 
0.04220 
0.04220 
0.13614 
0.13614 
0.12314 
0.12314 
0.13416 
0.13416 
0.14954 
0.14954 
0.03928 
0.03928 
0.07983 
0.07983 
0.11660 
0.11660 
0.12629 
0.12629 
0.10060 
0.10060 
0.12827 
0.12827 
0.10331 
0.10331 
0.11753 
0.11753 
0.07336 
0.07336 
0.17007 
0.17007 
0.12706 
0.12706 
0.08278 
0.08278 
0.14438 
0.14438 
0.13143 
0.13143 
0.30438 
0.30438 
0.13342 
0.13342 
0.16517 
0.16517 
0.11467 
0.11467 
0.06203 
0.06203 
0.09981 
0.09981 
0.05900 
0.05900 
0.13436 
0.13436 
0.14285 
0.14285 
0.17873 
0.17873 
0.15555 
0.15555 
0.10011 
0.10011 
0.14418 
0.14418 
0.12263 
0.12263 
0.12531 
0.12531 
0.13486 
0.13486 
0.10575 
0.10575 
0.03564 
0.03564 
0.15912 
0.15912 
0.10028 
0.10028 
0.17888 
0.17888 
0.22514 
0.22514 
0.14619 
0.14619 
0.07906 
0.07906 
0.13065 
0.13065 
0.15640 
0.15640 
0.15875 
0.15875 
0.13952 
0.13952 
0.11929 
0.11929 
0.20891 
0.20891 
0.11178 
0.11178 
0.08288 
0.08288 
0.11455 
0.11455 
0.13474 
0.13474 
0.07432 
0.07432 
0.14157 
0.14157 
0.16640 
0.16640 
0.08557 
0.08557 
0.09448 
0.09448 
0.06091 
0.06091 
0.10830 
0.10830 
0.09655 
0.09655 
0.06445 
0.06445 
0.12712 
0.12712 
0.16297 
0.16297 
0.09409 
0.09409 
0.18974 
0.18974 
0.06814 
0.06814 
0.14095 
0.14095 
0.14781 
0.14781 
SCALARS Umean_X double 1 
LOOKUP_TABLE default
0.06150 
0.06150 
-0.00400 
-0.00400 
-0.00350 
-0.00350 
0.02600 
0.02600 
0.00950 
0.00950 
0.00800 
0.00800 
0.03100 
0.03100 
0.02400 
0.02400 
0.01600 
0.01600 
-0.00150 
-0.00150 
0.05700 
0.05700 
0.00050 
0.00050 
0.03500 
0.03500 
0.03850 
0.03850 
0.04300 
0.04300 
-0.05450 
-0.05450 
0.05250 
0.05250 
0.02400 
0.02400 
0.01000 
0.01000 
-0.01650 
-0.01650 
-0.02000 
-0.02000 
0.02050 
0.02050 
0.00550 
0.00550 
0.05700 
0.05700 
0.06200 
0.06200 
0.07950 
0.07950 
0.04350 
0.04350 
0.05650 
0.05650 
0.02050 
0.02050 
0.01350 
0.01350 
-0.00800 
-0.00800 
-0.07300 
-0.07300 
0.01350 
0.01350 
-0.07400 
-0.07400 
0.04900 
0.04900 
-0.03750 
-0.03750 
-0.06600 
-0.06600 
-0.05800 
-0.05800 
0.06200 
0.06200 
-0.00350 
-0.00350 
0.13100 
0.13100 
0.02550 
0.02550 
0.05200 
0.05200 
-0.00300 
-0.00300 
0.01700 
0.01700 
0.03650 
0.03650 
0.00800 
0.00800 
-0.02550 
-0.02550 
0.05600 
0.05600 
0.09050 
0.09050 
-0.01500 
-0.01500 
0.01000 
0.01000 
0.04100 
0.04100 
-0.03450 
-0.03450 
0.07200 
0.07200 
0.01450 
0.01450 
0.04550 
0.04550 
0.10100 
0.10100 
0.11100 
0.11100 
0.10250 
0.10250 
0.05600 
0.05600 
0.11500 
0.11500 
0.03000 
0.03000 
-0.00250 
-0.00250 
0.06500 
0.06500 
0.03750 
0.03750 
0.09800 
0.09800 
0.07150 
0.07150 
0.06400 
0.06400 
0.03100 
0.03100 
0.07250 
0.07250 
0.05550 
0.05550 
0.08350 
0.08350 
0.08800 
0.08800 
0.05800 
0.05800 
0.10800 
0.10800 
0.05000 
0.05000 
0.05900 
0.05900 
0.05650 
0.05650 
-0.05900 
-0.05900 
0.00100 
0.00100 
-0.01900 
-0.01900 
0.05250 
0.05250 
-0.03700 
-0.03700 
0.04200 
0.04200 
0.08700 
0.08700 
0.06650 
0.06650 
0.02450 
0.02450 
0.01500 
0.01500 
0.02500 
0.02500 
0.06350 
0.06350 
0.04550 
0.04550 
0.08450 
0.08450 
0.03300 
0.03300 
0.08250 
0.08250 
0.05500 
0.05500 
0.04800 
0.04800 
0.05400 
0.05400 
0.05850 
0.05850 
0.04650 
0.04650 
0.05700 
0.05700 
0.02900 
0.02900 
0.10150 
0.10150 
0.06650 
0.06650 
0.01000 
0.01000 
0.04900 
0.04900 
0.06700 
0.06700 
0.09550 
0.09550 
0.02250 
0.02250 
0.00400 
0.00400 
0.02850 
0.02850 
0.08900 
0.08900 
0.07400 
0.07400 
0.08700 
0.08700 
0.12550 
0.12550 
0.00050 
0.00050 
0.02500 
0.02500 
0.00400 
0.00400 
0.05150 
0.05150 
0.09600 
0.09600 
0.08150 
0.08150 
0.07500 
0.07500 
0.03550 
0.03550 
0.07950 
0.07950 
0.03000 
0.03000 
0.04800 
0.04800 
0.07100 
0.07100 
0.03850 
0.03850 
0.08950 
0.08950 
-0.13050 
-0.13050 
0.00750 
0.00750 
-0.02450 
-0.02450 
0.06300 
0.06300 
0.03950 
0.03950 
0.06200 
0.06200 
0.06850 
0.06850 
0.03700 
0.03700 
0.09100 
0.09100 
-0.05750 
-0.05750 
0.06350 
0.06350 
0.02300 
0.02300 
0.05200 
0.05200 
0.03400 
0.03400 
0.08650 
0.08650 
0.05550 
0.05550 
0.09850 
0.09850 
-0.00550 
-0.00550 
0.02100 
0.02100 
0.10950 
0.10950 
0.06700 
0.06700 
0.03400 
0.03400 
0.07700 
0.07700 
0.02400 
0.02400 
0.03150 
0.03150 
0.02050 
0.02050 
0.10250 
0.10250 
0.09950 
0.09950 
0.08600 
0.08600 
-0.01400 
-0.01400 
0.01000 
0.01000 
-0.04400 
-0.04400 
0.06750 
0.06750 
0.04300 
0.04300 
0.05300 
0.05300 
0.08600 
0.08600 
0.09050 
0.09050 
-0.00650 
-0.00650 
-0.02600 
-0.02600 
0.06900 
0.06900 
0.03400 
0.03400 
0.02650 
0.02650 
0.01900 
0.01900 
0.00300 
0.00300 
0.09300 
0.09300 
0.04950 
0.04950 
0.18300 
0.18300 
0.09100 
0.09100 
0.08150 
0.08150 
0.02550 
0.02550 
0.04450 
0.04450 
-0.02100 
-0.02100 
0.06300 
0.06300 
0.11400 
0.11400 
-0.01000 
-0.01000 
0.09300 
0.09300 
0.09900 
0.09900 
-0.01500 
-0.01500 
0.11350 
0.11350 
-0.01150 
-0.01150 
0.07800 
0.07800 
0.04500 
0.04500 
-0.03750 
-0.03750 
0.07800 
0.07800 
0.12550 
0.12550 
0.02600 
0.02600 
0.08350 
0.08350 
0.07750 
0.07750 
-0.01800 
-0.01800 
0.08400 
0.08400 
0.03850 
0.03850 
0.01900 
0.01900 
0.01050 
0.01050 
-0.03250 
-0.03250 
0.06200 
0.06200 
0.07400 
0.07400 
0.03650 
0.03650 
0.09700 
0.09700 
0.00800 
0.00800 
0.11900 
0.11900 
-0.04450 
-0.04450 
0.08750 
0.08750 
0.03300 
0.03300 
0.10600 
0.10600 
0.09250 
0.09250 
0.00750 
0.00750 
0.04150 
0.04150 
0.12750 
0.12750 
-0.07650 
-0.07650 
0.07050 
0.07050 
-0.06600 
-0.06600 
0.02200 
0.02200 
0.08000 
0.08000 
0.00750 
0.00750 
0.01800 
0.01800 
0.06150 
0.06150 
0.03150 
0.03150 
0.00250 
0.00250 
0.00800 
0.00800 
0.07500 
0.07500 
0.01650 
0.01650 
0.05350 
0.05350 
0.07450 
0.07450 
-0.05600 
-0.05600 
0.03300 
0.03300 
0.01050 
0.01050 
0.00350 
0.00350 
0.09150 
0.09150 
-0.01900 
-0.01900 
0.13150 
0.13150 
0.06200 
0.06200 
0.00850 
0.00850 
0.11750 
0.11750 
0.01050 
0.01050 
0.03350 
0.03350 
0.01200 
0.01200 
-0.07500 
-0.07500 
0.02850 
0.02850 
-0.01750 
-0.01750 
0.01250 
0.01250 
0.09450 
0.09450 
-0.06050 
-0.06050 
0.03550 
0.03550 
0.13200 
0.13200 
0.04550 
0.04550 
0.02200 
0.02200 
0.10350 
0.10350 
0.07950 
0.07950 
0.08700 
0.08700 
0.02300 
0.02300 
0.05100 
0.05100 
0.05900 
0.05900 
0.07050 
0.07050 
0.03800 
0.03800 
0.05350 
0.05350 
0.05400 
0.05400 
0.00250 
0.00250 
0.04900 
0.04900 
0.01000 
0.01000 
-0.04750 
-0.04750 
0.11000 
0.11000 
0.05450 
0.05450 
0.03700 
0.03700 
0.00050 
0.00050 
0.08150 
0.08150 
-0.02850 
-0.02850 
0.02200 
0.02200 
0.02050 
0.02050 
0.08200 
0.08200 
0.04500 
0.04500 
0.08850 
0.08850 
0.05900 
0.05900 
-0.02500 
-0.02500 
0.07150 
0.07150 
-0.00350 
-0.00350 
0.01350 
0.01350 
0.01350 
0.01350 
0.03900 
0.03900 
-0.00100 
-0.00100 
0.02500 
0.02500 
0.05500 
0.05500 
0.00050 
0.00050 
0.03700 
0.03700 
0.01550 
0.01550 
0.00050 
0.00050 
-0.01400 
-0.01400 
-0.03400 
-0.03400 
-0.02050 
-0.02050 
0.08550 
0.08550 
0.03550 
0.03550 
-0.03100 
-0.03100 
0.05900 
0.05900 
0.06300 
0.06300 
-0.05800 
-0.05800 
0.04050 
0.04050 
0.04100 
0.04100 
-0.06400 
-0.06400 
0.09000 
0.09000 
0.02200 
0.02200 
0.16250 
0.16250 
-0.01150 
-0.01150 
0.05700 
0.05700 
0.04850 
0.04850 
0.01650 
0.01650 
0.07000 
0.07000 
0.07300 
0.07300 
0.08050 
0.08050 
0.13400 
0.13400 
0.07400 
0.07400 
0.04000 
0.04000 
0.10150 
0.10150 
0.01300 
0.01300 
0.08550 
0.08550 
0.02400 
0.02400 
0.03750 
0.03750 
0.02750 
0.02750 
-0.00900 
-0.00900 
0.06000 
0.06000 
-0.01450 
-0.01450 
0.05900 
0.05900 
0.07050 
0.07050 
0.04150 
0.04150 
-0.03150 
-0.03150 
0.06200 
0.06200 
0.09800 
0.09800 
0.04750 
0.04750 
-0.03350 
-0.03350 
0.01550 
0.01550 
0.00900 
0.00900 
-0.00750 
-0.00750 
0.08850 
0.08850 
0.05050 
0.05050 
0.08450 
0.08450 
0.07400 
0.07400 
0.06450 
0.06450 
0.00050 
0.00050 
-0.00350 
-0.00350 
0.05750 
0.05750 
0.01600 
0.01600 
0.03500 
0.03500 
-0.06000 
-0.06000 
-0.00200 
-0.00200 
0.02200 
0.02200 
0.03400 
0.03400 
0.02200 
0.02200 
0.02000 
0.02000 
0.00450 
0.00450 
-0.00650 
-0.00650 
0.04200 
0.04200 
0.07050 
0.07050 
0.12100 
0.12100 
0.10000 
0.10000 
0.09000 
0.09000 
0.09300 
0.09300 
-0.00400 
-0.00400 
0.11600 
0.11600 
-0.13150 
-0.13150 
0.04300 
0.04300 
0.05100 
0.05100 
0.00250 
0.00250 
0.02200 
0.02200 
0.10350 
0.10350 
0.06100 
0.06100 
0.01050 
0.01050 
0.07700 
0.07700 
0.02700 
0.02700 
0.01450 
0.01450 
0.08800 
0.08800 
0.07400 
0.07400 
0.04800 
0.04800 
0.12750 
0.12750 
0.05400 
0.05400 
0.08350 
0.08350 
-0.04750 
-0.04750 
0.12500 
0.12500 
0.02500 
0.02500 
0.02100 
0.02100 
0.06850 
0.06850 
-0.00900 
-0.00900 
0.14900 
0.14900 
0.02100 
0.02100 
0.12900 
0.12900 
0.00950 
0.00950 
0.07100 
0.07100 
0.07600 
0.07600 
-0.04950 
-0.04950 
0.03750 
0.03750 
-0.02100 
-0.02100 
0.02000 
0.02000 
0.01750 
0.01750 
0.05700 
0.05700 
0.03000 
0.03000 
0.07700 
0.07700 
0.00350 
0.00350 
-0.02650 
-0.02650 
0.01200 
0.01200 
0.04300 
0.04300 
0.03000 
0.03000 
0.12950 
0.12950 
0.06050 
0.06050 
0.01100 
0.01100 
0.03000 
0.03000 
0.02850 
0.02850 
0.07400 
0.07400 
0.03700 
0.03700 
0.05150 
0.05150 
0.06500 
0.06500 
-0.00600 
-0.00600 
0.08100 
0.08100 
0.05750 
0.05750 
0.00900 
0.00900 
-0.00250 
-0.00250 
0.03450 
0.03450 
0.05800 
0.05800 
-0.03650 
-0.03650 
-0.03600 
-0.03600 
0.02700 
0.02700 
0.03550 
0.03550 
0.01200 
0.01200 
0.07800 
0.07800 
-0.04600 
-0.04600 
-0.14000 
-0.14000 
-0.00500 
-0.00500 
0.05150 
0.05150 
0.02400 
0.02400 
-0.03050 
-0.03050 
0.10050 
0.10050 
0.04250 
0.04250 
0.03100 
0.03100 
0.08350 
0.08350 
-0.03400 
-0.03400 
-0.04900 
-0.04900 
0.05550 
0.05550 
-0.00200 
-0.00200 
0.10950 
0.10950 
0.08300 
0.08300 
0.08350 
0.08350 
0.04550 
0.04550 
0.02400 
0.02400 
0.07050 
0.07050 
-0.01800 
-0.01800 
0.01900 
0.01900 
-0.01750 
-0.01750 
0.04700 
0.04700 
0.10500 
0.10500 
0.13700 
0.13700 
0.13150 
0.13150 
0.02400 
0.02400 
0.11800 
0.11800 
0.02500 
0.02500 
0.02700 
0.02700 
0.04450 
0.04450 
0.03650 
0.03650 
0.01500 
0.01500 
0.07850 
0.07850 
0.07500 
0.07500 
0.03450 
0.03450 
0.16400 
0.16400 
0.01850 
0.01850 
0.03150 
0.03150 
0.04650 
0.04650 
-0.00100 
-0.00100 
0.01650 
0.01650 
0.06450 
0.06450 
0.02300 
0.02300 
0.06450 
0.06450 
0.05250 
0.05250 
-0.06300 
-0.06300 
-0.01000 
-0.01000 
0.07350 
0.07350 
0.00150 
0.00150 
0.04450 
0.04450 
0.05250 
0.05250 
-0.05550 
-0.05550 
0.03300 
0.03300 
0.04600 
0.04600 
0.05700 
0.05700 
0.04800 
0.04800 
0.02700 
0.02700 
-0.00950 
-0.00950 
0.15850 
0.15850 
-0.01050 
-0.01050 
0.03600 
0.03600 
-0.02500 
-0.02500 
-0.03350 
-0.03350 
0.06950 
0.06950 
SCALARS Umean_Y double 1 
LOOKUP_TABLE default
0.03050 
0.03050 
0.12350 
0.12350 
0.14100 
0.14100 
0.14300 
0.14300 
0.11900 
0.11900 
0.11950 
0.11950 
0.14650 
0.14650 
0.07100 
0.07100 
0.18900 
0.18900 
0.11200 
0.11200 
0.14850 
0.14850 
0.05750 
0.05750 
0.05850 
0.05850 
0.13600 
0.13600 
0.13200 
0.13200 
0.06900 
0.06900 
0.07250 
0.07250 
0.11250 
0.11250 
0.05950 
0.05950 
0.14950 
0.14950 
0.06350 
0.06350 
0.11550 
0.11550 
0.10300 
0.10300 
0.15900 
0.15900 
0.12350 
0.12350 
0.07250 
0.07250 
0.08100 
0.08100 
0.01950 
0.01950 
0.12250 
0.12250 
0.18900 
0.18900 
0.10850 
0.10850 
0.11000 
0.11000 
0.13150 
0.13150 
0.05050 
0.05050 
0.14800 
0.14800 
0.14850 
0.14850 
0.11100 
0.11100 
0.10900 
0.10900 
-0.00950 
-0.00950 
0.03250 
0.03250 
0.12250 
0.12250 
0.07700 
0.07700 
0.08950 
0.08950 
0.08550 
0.08550 
0.12650 
0.12650 
0.03750 
0.03750 
0.12100 
0.12100 
0.12250 
0.12250 
0.04700 
0.04700 
0.14050 
0.14050 
0.09100 
0.09100 
0.08100 
0.08100 
0.11400 
0.11400 
0.09050 
0.09050 
0.08550 
0.08550 
0.16100 
0.16100 
0.10350 
0.10350 
0.05500 
0.05500 
0.05400 
0.05400 
0.04550 
0.04550 
0.10750 
0.10750 
0.07250 
0.07250 
-0.01450 
-0.01450 
0.10900 
0.10900 
0.10850 
0.10850 
0.10700 
0.10700 
0.11900 
0.11900 
0.08000 
0.08000 
0.07350 
0.07350 
0.12950 
0.12950 
0.03850 
0.03850 
0.14050 
0.14050 
0.03050 
0.03050 
0.03800 
0.03800 
0.18750 
0.18750 
0.14100 
0.14100 
0.11250 
0.11250 
0.15300 
0.15300 
0.09900 
0.09900 
-0.01400 
-0.01400 
0.11900 
0.11900 
0.04150 
0.04150 
0.04050 
0.04050 
0.04000 
0.04000 
0.13550 
0.13550 
0.18500 
0.18500 
0.07800 
0.07800 
0.08700 
0.08700 
0.06550 
0.06550 
0.11850 
0.11850 
0.06000 
0.06000 
0.14350 
0.14350 
0.03400 
0.03400 
0.12600 
0.12600 
0.10800 
0.10800 
0.10600 
0.10600 
0.12650 
0.12650 
0.09850 
0.09850 
0.06650 
0.06650 
0.11450 
0.11450 
0.11350 
0.11350 
0.03000 