# vtk DataFile Version 2.1 
Trajects from timestep 24 with color option 
ASCII 
 
DATASET POLYDATA POINTS 106 float 
-5.118 -3.325 -71.833 
-5.076 -3.193 -71.760 
-7.011 11.199 -68.433 
-7.097 11.352 -68.547 
-5.286 5.483 -64.716 
-5.266 5.863 -64.829 
-13.218 1.757 -69.804 
-13.282 1.760 -69.836 
-9.724 4.717 -71.616 
-9.775 4.759 -71.587 
-14.960 -5.634 -71.264 
-15.180 -5.838 -71.337 
-6.535 13.075 -63.516 
-6.490 13.320 -63.449 
-15.117 9.228 -70.083 
-15.031 9.164 -70.142 
4.191 6.017 -72.977 
4.193 5.961 -73.067 
7.564 1.679 -66.284 
7.569 1.697 -66.357 
11.739 -4.679 -73.772 
11.900 -4.794 -73.785 
5.557 8.827 -73.779 
5.579 8.870 -73.849 
1.012 -12.428 -68.853 
1.156 -12.354 -68.825 
10.555 1.389 -65.246 
10.542 1.561 -65.316 
-15.765 -7.915 -74.367 
-15.783 -7.770 -74.567 
-14.770 5.821 -68.099 
-14.886 5.678 -68.092 
15.553 8.134 -65.412 
15.528 8.121 -65.677 
16.355 8.313 -73.493 
16.261 8.269 -73.446 
-5.498 7.106 -62.084 
-5.470 7.336 -62.168 
11.301 1.596 -63.404 
11.341 1.791 -63.401 
-2.996 12.707 -70.493 
-2.893 12.848 -70.670 
-7.729 -0.671 -65.057 
-7.712 -0.505 -65.007 
-4.580 -1.102 -78.615 
-4.414 -0.934 -79.152 
-6.037 0.806 -72.812 
-6.064 0.799 -72.847 
-7.932 -9.171 -74.384 
-7.926 -9.049 -74.567 
-9.311 -12.012 -66.842 
-9.313 -12.004 -66.972 
8.620 -9.103 -75.122 
8.606 -9.179 -75.335 
5.408 12.335 -74.177 
5.376 12.297 -74.295 
5.902 9.343 -61.618 
5.751 9.574 -61.663 
-11.247 -5.384 -64.577 
-11.056 -5.217 -64.355 
-9.953 -3.638 -57.900 
-10.058 -3.264 -57.860 
2.980 -13.015 -65.807 
3.111 -12.959 -65.610 
11.393 5.308 -71.194 
11.184 5.472 -71.350 
-12.569 -1.287 -76.094 
-12.668 -1.216 -76.193 
2.107 -2.525 -77.529 
2.164 -2.501 -77.638 
-0.928 -5.582 -62.758 
-0.728 -5.154 -62.727 
-0.439 2.202 -59.243 
-0.438 2.450 -59.326 
-12.252 -6.759 -62.480 
-12.160 -6.720 -62.556 
-7.451 -5.471 -58.866 
-7.383 -5.230 -58.871 
11.425 -11.707 -71.656 
11.368 -11.582 -71.684 
-3.797 0.890 -59.014 
-3.820 1.082 -59.167 
-1.097 2.732 -74.852 
-1.153 2.835 -75.050 
-10.165 5.858 -67.073 
-10.249 5.895 -67.110 
-13.457 3.773 -64.590 
-13.541 3.818 -64.700 
-7.797 -2.493 -72.585 
-7.825 -2.429 -72.645 
11.935 -12.653 -70.943 
11.968 -12.658 -70.757 
8.083 -4.432 -76.545 
8.160 -4.550 -76.698 
-16.484 -3.203 -72.594 
-16.693 -3.140 -72.544 
2.797 12.014 -65.579 
2.906 12.044 -65.817 
-5.862 -4.443 -69.062 
-5.845 -4.300 -69.042 
-15.496 -3.019 -80.355 
-15.560 -2.829 -80.886 
-4.858 5.055 -61.843 
-4.809 5.430 -61.887 
7.373 13.527 -67.965 
7.461 13.580 -68.016 

 LINES 53 159 
2 0 1 
2 2 3 
2 4 5 
2 6 7 
2 8 9 
2 10 11 
2 12 13 
2 14 15 
2 16 17 
2 18 19 
2 20 21 
2 22 23 
2 24 25 
2 26 27 
2 28 29 
2 30 31 
2 32 33 
2 34 35 
2 36 37 
2 38 39 
2 40 41 
2 42 43 
2 44 45 
2 46 47 
2 48 49 
2 50 51 
2 52 53 
2 54 55 
2 56 57 
2 58 59 
2 60 61 
2 62 63 
2 64 65 
2 66 67 
2 68 69 
2 70 71 
2 72 73 
2 74 75 
2 76 77 
2 78 79 
2 80 81 
2 82 83 
2 84 85 
2 86 87 
2 88 89 
2 90 91 
2 92 93 
2 94 95 
2 96 97 
2 98 99 
2 100 101 
2 102 103 
2 104 105 
POINT_DATA 106 
SCALARS Umean double 1 
LOOKUP_TABLE default
0.07829 
0.07829 
0.10464 
0.10464 
0.19847 
0.19847 
0.03581 
0.03581 
0.03608 
0.03608 
0.15439 
0.15439 
0.12898 
0.12898 
0.06118 
0.06118 
0.05301 
0.05301 
0.03768 
0.03768 
0.09914 
0.09914 
0.04252 
0.04252 
0.08215 
0.08215 
0.09308 
0.09308 
0.12384 
0.12384 
0.09213 
0.09213 
0.13325 
0.13325 
0.05697 
0.05697 
0.12323 
0.12323 
0.09954 
0.09954 
0.12432 
0.12432 
0.08710 
0.08710 
0.29332 
0.29332 
0.02238 
0.02238 
0.11001 
0.11001 
0.06513 
0.06513 
0.11329 
0.11329 
0.06402 
0.06402 
0.13981 
0.13981 
0.16856 
0.16856 
0.19526 
0.19526 
0.12156 
0.12156 
0.15404 
0.15404 
0.07849 
0.07849 
0.06266 
0.06266 
0.23672 
0.23672 
0.13076 
0.13076 
0.06277 
0.06277 
0.12523 
0.12523 
0.07010 
0.07010 
0.12329 
0.12329 
0.11505 
0.11505 
0.04948 
0.04948 
0.07277 
0.07277 
0.04604 
0.04604 
0.09449 
0.09449 
0.10400 
0.10400 
0.11197 
0.11197 
0.13174 
0.13174 
0.07269 
0.07269 
0.28379 
0.28379 
0.19037 
0.19037 
0.05735 
0.05735 
SCALARS Umean_X double 1 
LOOKUP_TABLE default
0.02100 
0.02100 
-0.04300 
-0.04300 
0.01000 
0.01000 
-0.03200 
-0.03200 
-0.02550 
-0.02550 
-0.11000 
-0.11000 
0.02250 
0.02250 
0.04300 
0.04300 
0.00100 
0.00100 
0.00250 
0.00250 
0.08050 
0.08050 
0.01100 
0.01100 
0.07200 
0.07200 
-0.00650 
-0.00650 
-0.00900 
-0.00900 
-0.05800 
-0.05800 
-0.01250 
-0.01250 
-0.04700 
-0.04700 
0.01400 
0.01400 
0.02000 
0.02000 
0.05150 
0.05150 
0.00850 
0.00850 
0.08300 
0.08300 
-0.01350 
-0.01350 
0.00300 
0.00300 
-0.00100 
-0.00100 
-0.00700 
-0.00700 
-0.01600 
-0.01600 
-0.07550 
-0.07550 
0.09550 
0.09550 
-0.05250 
-0.05250 
0.06550 
0.06550 
-0.10450 
-0.10450 
-0.04950 
-0.04950 
0.02850 
0.02850 
0.10000 
0.10000 
0.00050 
0.00050 
0.04600 
0.04600 
0.03400 
0.03400 
-0.02850 
-0.02850 
-0.01150 
-0.01150 
-0.02800 
-0.02800 
-0.04200 
-0.04200 
-0.04200 
-0.04200 
-0.01400 
-0.01400 
0.01650 
0.01650 
0.03850 
0.03850 
-0.10450 
-0.10450 
0.05450 
0.05450 
0.00850 
0.00850 
-0.03200 
-0.03200 
0.02450 
0.02450 
0.04400 
0.04400 
SCALARS Umean_Y double 1 
LOOKUP_TABLE default
0.06600 
0.06600 
0.07650 
0.07650 
0.19000 
0.19000 
0.00150 
0.00150 
0.02100 
0.02100 
-0.10200 
-0.10200 
0.12250 
0.12250 
-0.03200 
-0.03200 
-0.02800 
-0.02800 
0.00900 
0.00900 
-0.05750 
-0.05750 
0.02150 
0.02150 
0.03700 
0.03700 
0.08600 
0.08600 
0.07250 
0.07250 
-0.07150 
-0.07150 
-0.00650 
-0.00650 
-0.02200 
-0.02200 
0.11500 
0.11500 
0.09750 
0.09750 
0.07050 
0.07050 
0.08300 
0.08300 
0.08400 
0.08400 
-0.00350 
-0.00350 
0.06100 
0.06100 
0.00400 
0.00400 
-0.03800 
-0.03800 
-0.01900 
-0.01900 
0.11550 
0.11550 
0.08350 
0.08350 
0.18700 
0.18700 
0.02800 
0.02800 
0.08200 
0.08200 
0.03550 
0.03550 
0.01200 
0.01200 
0.21400 
0.21400 
0.12400 
0.12400 
0.01950 
0.01950 
0.12050 
0.12050 
0.06250 
0.06250 
0.09600 
0.09600 
0.05150 
0.05150 
0.01850 
0.01850 
0.02250 
0.02250 
0.03200 
0.03200 
-0.00250 
-0.00250 
-0.05900 
-0.05900 
0.03150 
0.03150 
0.01500 
0.01500 
0.07150 
0.07150 
0.09500 
0.09500 
0.18750 
0.18750 
0.02650 
0.02650 
SCALARS Umean_Z double 1 
LOOKUP_TABLE default
0.03650 
0.03650 
-0.05700 
-0.05700 
-0.05650 
-0.05650 
-0.01600 
-0.01600 
0.01450 
0.01450 
-0.03650 
-0.03650 
0.03350 
0.03350 
-0.02950 
-0.02950 
-0.04500 
-0.04500 
-0.03650 
-0.03650 
-0.00650 
-0.00650 
-0.03500 
-0.03500 
0.01400 
0.01400 
-0.03500 
-0.03500 
-0.10000 
-0.10000 
0.00350 
0.00350 
-0.13250 
-0.13250 
0.02350 
0.02350 
-0.04200 
-0.04200 
0.00150 
0.00150 
-0.08850 
-0.08850 
0.02500 
0.02500 
-0.26850 
-0.26850 
-0.01750 
-0.01750 
-0.09150 
-0.09150 
-0.06500 
-0.06500 
-0.10650 
-0.10650 
-0.05900 
-0.05900 
-0.02250 
-0.02250 
0.11100 
0.11100 
0.02000 
0.02000 
0.09850 
0.09850 
-0.07800 
-0.07800 
-0.04950 
-0.04950 
-0.05450 
-0.05450 
0.01550 
0.01550 
-0.04150 
-0.04150 
-0.03800 
-0.03800 
-0.00250 
-0.00250 
-0.01400 
-0.01400 
-0.07650 
-0.07650 
-0.09900 
-0.09900 
-0.01850 
-0.01850 
-0.05500 
-0.05500 
-0.03000 
-0.03000 
0.09300 
0.09300 
-0.07650 
-0.07650 
0.02500 
0.02500 
-0.11900 
-0.11900 
0.01000 
0.01000 
-0.26550 
-0.26550 
-0.02200 
-0.02200 
-0.02550 
-0.02550 
