# vtk DataFile Version 2.1 
Trajects from timestep 57 with color option 
ASCII 
 
DATASET POLYDATA POINTS 1010 float 
-2.192 4.386 -73.548 
-2.169 4.545 -73.715 
-10.045 1.974 -72.417 
-9.979 2.030 -72.477 
-3.704 -12.050 -73.299 
-3.611 -11.869 -73.176 
1.643 4.841 -68.962 
1.764 5.093 -69.136 
5.647 3.490 -70.040 
5.683 3.581 -70.162 
-5.984 9.034 -73.848 
-6.053 9.168 -73.951 
-3.587 2.357 -73.193 
-3.499 2.555 -73.213 
-7.230 5.548 -70.491 
-7.162 5.582 -70.592 
5.675 5.616 -68.942 
5.718 5.733 -69.023 
-3.179 -5.364 -73.388 
-3.180 -5.266 -73.385 
0.058 1.276 -71.389 
0.125 1.526 -71.493 
4.678 8.788 -71.205 
4.624 8.882 -71.248 
7.723 6.839 -73.109 
7.622 6.873 -73.184 
-11.995 5.972 -72.459 
-12.052 6.034 -72.435 
-3.744 -2.210 -67.747 
-3.703 -2.033 -67.599 
-4.151 7.983 -72.311 
-4.263 8.080 -72.474 
-0.678 5.606 -70.741 
-0.695 5.795 -70.823 
-1.510 2.119 -72.432 
-1.379 2.305 -72.513 
-3.750 1.564 -70.790 
-3.634 1.691 -70.757 
1.437 -2.496 -69.882 
1.482 -2.168 -70.012 
-3.207 -6.939 -72.560 
-3.100 -6.794 -72.442 
-8.471 -5.620 -68.722 
-8.345 -5.355 -68.723 
1.539 7.136 -71.031 
1.506 7.245 -71.224 
-0.941 1.076 -72.261 
-0.851 1.269 -72.355 
-1.988 10.643 -68.144 
-2.087 10.833 -68.215 
-2.593 -2.921 -68.710 
-2.478 -2.786 -68.589 
5.974 -1.501 -67.845 
6.144 -1.214 -68.023 
2.461 -7.418 -73.003 
2.566 -7.214 -73.068 
-12.237 2.457 -71.273 
-12.133 2.527 -71.260 
8.150 8.831 -68.846 
8.032 8.924 -69.114 
3.688 -1.541 -67.625 
3.831 -1.201 -67.808 
0.564 -0.029 -70.219 
0.643 0.287 -70.295 
8.341 0.388 -68.106 
8.614 0.648 -68.264 
2.428 9.946 -70.148 
2.337 9.953 -70.133 
5.462 8.567 -71.190 
5.366 8.627 -71.265 
-5.822 1.743 -68.889 
-5.713 1.822 -68.922 
8.949 -3.648 -71.379 
8.907 -3.596 -71.470 
5.032 7.499 -71.233 
4.924 7.587 -71.267 
5.403 -3.744 -66.008 
5.575 -3.548 -66.227 
-4.802 -4.355 -69.833 
-4.691 -4.143 -69.760 
13.065 -1.971 -69.885 
13.135 -1.847 -69.950 
-1.566 6.458 -68.644 
-1.559 6.700 -68.804 
-11.789 -8.147 -69.148 
-11.777 -7.908 -69.055 
-8.404 -5.782 -73.581 
-8.419 -5.623 -73.491 
2.688 4.480 -67.208 
2.842 4.775 -67.294 
-3.440 6.670 -67.296 
-3.410 6.763 -67.429 
7.838 5.877 -67.749 
7.925 5.952 -67.787 
-6.244 2.872 -67.934 
-6.250 3.107 -67.968 
-6.185 4.216 -75.391 
-6.204 4.191 -75.363 
8.007 5.350 -69.524 
8.017 5.469 -69.645 
6.429 -2.812 -67.655 
6.511 -2.644 -67.788 
-10.429 1.967 -69.811 
-10.354 2.014 -69.759 
-3.224 7.083 -70.125 
-3.234 7.328 -70.251 
-6.296 -5.268 -66.416 
-6.259 -5.098 -66.437 
14.758 -5.747 -72.479 
14.740 -5.644 -72.624 
-4.805 2.952 -68.256 
-4.662 3.095 -68.220 
5.458 -2.113 -71.553 
5.463 -1.890 -71.608 
3.121 12.007 -69.179 
3.084 12.162 -69.276 
-2.288 5.784 -62.217 
-2.279 6.006 -62.160 
10.343 10.739 -73.084 
10.215 10.720 -73.231 
-5.635 -0.539 -67.261 
-5.615 -0.343 -67.024 
6.488 11.404 -66.393 
6.420 11.578 -66.463 
0.612 3.517 -66.502 
0.770 3.895 -66.611 
2.681 -6.131 -71.907 
2.723 -5.854 -72.017 
-9.440 5.277 -66.986 
-9.421 5.465 -67.027 
13.441 0.351 -70.701 
13.498 0.514 -70.821 
-13.921 -0.842 -69.104 
-13.807 -0.525 -69.095 
-1.002 7.449 -63.346 
-0.947 7.700 -63.488 
-6.185 3.967 -62.166 
-6.155 4.285 -62.293 
-11.222 5.690 -62.956 
-11.224 5.968 -62.988 
-6.597 11.168 -66.565 
-6.659 11.389 -66.742 
1.739 4.753 -63.566 
1.830 5.036 -63.705 
-8.253 -4.716 -65.275 
-8.194 -4.437 -65.240 
-2.117 -1.508 -69.583 
-2.093 -1.330 -69.547 
-6.374 8.760 -64.716 
-6.441 8.985 -64.929 
4.899 -12.931 -68.003 
5.084 -12.862 -67.850 
-5.934 -6.528 -71.103 
-5.885 -6.234 -71.196 
-6.275 -6.814 -67.990 
-6.309 -6.709 -68.151 
-8.256 -9.516 -68.851 
-8.187 -9.330 -68.953 
-12.328 1.889 -71.363 
-12.316 1.893 -71.493 
-8.233 -7.498 -67.440 
-8.163 -7.277 -67.376 
0.290 1.298 -73.319 
0.391 1.394 -73.495 
9.407 6.396 -68.024 
9.387 6.541 -68.164 
-1.315 5.612 -66.376 
-1.200 5.878 -66.587 
-7.858 -1.814 -64.594 
-7.763 -1.697 -64.411 
6.940 -10.220 -64.100 
6.952 -10.154 -64.032 
-6.601 -11.031 -72.277 
-6.637 -10.834 -72.509 
-4.323 8.800 -71.007 
-4.392 8.999 -71.104 
-6.869 4.647 -63.541 
-6.806 4.889 -63.516 
1.694 -2.209 -66.332 
1.777 -1.892 -66.549 
-7.536 -7.817 -66.788 
-7.411 -7.529 -66.742 
0.698 2.317 -63.903 
0.958 2.687 -64.087 
-6.281 -1.699 -64.808 
-6.186 -1.499 -64.690 
4.092 -10.980 -71.834 
4.257 -10.901 -71.644 
17.047 9.626 -69.832 
17.025 9.740 -69.983 
17.293 0.912 -69.536 
17.387 1.077 -69.662 
-11.431 10.225 -66.203 
-11.390 10.309 -66.330 
4.868 -9.904 -66.267 
4.909 -9.778 -66.320 
-7.173 2.425 -62.055 
-7.162 2.623 -62.049 
1.344 9.660 -63.368 
1.376 9.932 -63.435 
-8.044 -1.662 -67.829 
-7.984 -1.589 -67.660 
7.579 3.830 -65.493 
7.735 4.028 -65.428 
-9.957 8.835 -66.185 
-9.861 8.944 -66.365 
11.369 9.330 -65.683 
11.379 9.517 -65.745 
-10.115 9.719 -65.351 
-9.988 9.927 -65.435 
-3.454 3.439 -71.717 
-3.410 3.581 -71.754 
-8.997 2.670 -60.902 
-8.966 2.921 -60.901 
14.696 -0.755 -70.052 
14.786 -0.572 -70.177 
-10.277 11.569 -63.053 
-10.212 11.801 -63.104 
-14.560 5.763 -74.021 
-14.630 5.826 -74.042 
5.645 -3.379 -62.742 
5.757 -3.143 -63.004 
11.844 3.266 -66.835 
11.870 3.544 -66.920 
12.616 -0.086 -71.026 
12.655 0.028 -71.142 
13.001 2.667 -71.257 
13.059 2.843 -71.417 
-6.299 3.174 -69.328 
-6.170 3.270 -69.368 
7.150 4.452 -63.355 
7.107 4.571 -63.322 
10.387 10.507 -67.165 
10.294 10.432 -67.203 
-6.494 7.795 -62.858 
-6.441 8.213 -62.996 
5.584 11.381 -70.588 
5.443 11.501 -70.728 
-7.107 -5.138 -64.066 
-6.876 -5.093 -64.107 
15.008 8.738 -70.626 
14.982 8.800 -70.819 
9.914 -3.016 -65.398 
9.967 -2.965 -65.476 
-0.231 -9.019 -60.780 
-0.064 -8.860 -60.938 
15.543 3.994 -70.399 
15.592 4.169 -70.574 
-7.492 12.037 -64.726 
-7.407 12.360 -64.856 
-4.684 -8.831 -66.816 
-4.562 -8.675 -66.943 
-8.343 9.395 -65.782 
-8.349 9.616 -65.917 
11.671 9.274 -74.023 
11.550 9.318 -74.250 
-3.258 -8.989 -63.936 
-3.137 -8.814 -64.073 
8.492 4.916 -70.154 
8.491 5.087 -70.278 
3.267 5.770 -60.045 
3.337 5.964 -60.014 
-8.862 8.077 -63.648 
-8.978 8.198 -63.857 
-3.824 -9.048 -76.951 
-3.815 -8.991 -76.959 
-13.777 1.162 -67.051 
-13.766 1.458 -67.008 
5.448 -5.994 -77.627 
5.462 -5.890 -77.684 
-11.790 -5.925 -66.662 
-11.708 -5.726 -66.504 
-7.376 -5.227 -66.183 
-7.355 -4.929 -66.132 
-3.021 -11.567 -69.160 
-2.951 -11.331 -69.364 
2.674 6.526 -65.410 
2.739 6.891 -65.513 
-3.373 10.404 -75.726 
-3.533 10.577 -75.901 
-9.386 -2.035 -65.104 
-9.333 -1.824 -64.937 
9.279 11.577 -69.376 
9.214 11.490 -69.499 
7.667 -9.748 -69.064 
7.986 -9.760 -69.226 
7.301 -0.470 -73.542 
7.322 -0.430 -73.758 
-14.364 -5.174 -68.504 
-14.339 -4.924 -68.464 
-0.627 10.847 -62.599 
-0.660 11.087 -62.517 
6.935 12.202 -71.876 
6.860 12.238 -72.108 
12.103 -3.787 -70.945 
12.116 -3.758 -71.011 
-6.929 10.679 -77.736 
-7.001 10.773 -77.865 
13.168 -3.192 -70.119 
13.225 -3.054 -70.213 
-3.826 6.601 -60.374 
-3.793 6.785 -60.310 
-6.355 10.866 -74.465 
-6.397 11.028 -74.610 
-15.500 -5.483 -70.983 
-15.441 -5.386 -71.147 
-8.221 8.492 -72.819 
-8.328 8.577 -73.113 
3.697 -11.868 -66.759 
3.937 -11.782 -66.899 
7.512 12.054 -65.787 
7.483 12.148 -65.791 
0.799 -4.472 -62.371 
0.977 -4.239 -62.394 
-12.712 -1.245 -69.397 
-12.610 -1.175 -69.312 
-6.904 -1.530 -74.467 
-6.805 -1.382 -74.422 
5.459 -0.398 -68.331 
5.635 -0.152 -68.510 
-9.068 -1.026 -63.080 
-8.937 -0.885 -62.891 
-8.751 -9.238 -66.908 
-8.503 -8.967 -66.957 
2.824 10.608 -73.894 
2.680 10.651 -73.983 
-11.295 0.745 -68.683 
-11.203 0.878 -68.667 
-3.891 -9.510 -74.493 
-3.801 -9.359 -74.592 
2.223 -2.708 -70.877 
2.172 -2.417 -70.856 
6.683 -4.444 -72.942 
6.606 -4.326 -72.954 
2.920 -12.235 -66.538 
3.066 -12.203 -66.476 
13.348 10.142 -66.100 
13.350 10.335 -66.282 
9.464 -1.872 -64.814 
9.538 -1.760 -64.908 
-10.409 -2.029 -64.815 
-10.532 -1.748 -64.614 
2.856 9.487 -64.830 
2.919 9.821 -64.908 
12.734 -4.456 -64.277 
12.768 -4.189 -64.182 
15.495 -11.630 -68.732 
15.592 -11.508 -68.709 
-1.308 8.615 -60.147 
-1.353 8.796 -60.279 
8.223 -10.837 -73.707 
8.220 -10.782 -73.772 
15.298 9.870 -68.898 
15.320 9.734 -69.018 
-5.330 5.419 -71.092 
-5.264 5.526 -71.186 
-1.504 -6.360 -72.603 
-1.534 -6.260 -72.638 
-10.320 5.565 -65.307 
-10.297 5.702 -65.350 
-3.906 7.921 -63.467 
-3.862 8.193 -63.558 
-0.779 -10.058 -75.512 
-0.679 -9.916 -75.575 
-5.223 10.276 -65.774 
-5.231 10.546 -65.852 
14.016 -8.176 -68.232 
13.963 -8.090 -68.239 
16.102 -6.711 -73.825 
15.976 -6.709 -73.895 
-10.344 -2.421 -68.399 
-10.223 -2.207 -68.339 
-6.439 9.710 -65.316 
-6.355 10.042 -65.263 
-0.980 -8.894 -66.380 
-0.847 -8.727 -66.564 
-13.569 1.744 -66.550 
-13.549 2.006 -66.443 
-8.739 -8.308 -68.683 
-8.734 -8.168 -68.665 
9.906 -11.389 -66.818 
10.088 -11.358 -66.752 
10.744 5.130 -63.577 
10.717 5.434 -63.651 
-1.324 2.133 -73.882 
-1.248 2.224 -73.981 
15.017 -4.432 -71.627 
15.081 -4.327 -71.708 
3.341 -3.969 -64.396 
3.398 -3.700 -64.560 
11.680 -4.332 -67.298 
11.772 -4.245 -67.363 
10.074 11.709 -70.254 
9.960 11.655 -70.366 
-8.718 -1.574 -67.757 
-8.639 -1.456 -67.661 
-13.466 -0.505 -70.963 
-13.382 -0.453 -71.014 
-8.928 -1.917 -67.587 
-8.815 -1.769 -67.467 
8.269 7.726 -63.794 
8.386 7.948 -63.801 
6.753 -5.809 -65.472 
6.968 -5.648 -65.679 
7.958 1.910 -61.757 
8.125 2.124 -61.845 
-1.951 -1.024 -65.397 
-1.825 -0.728 -65.482 
10.927 -3.590 -70.654 
10.882 -3.559 -70.710 
1.364 -9.758 -76.461 
1.461 -9.795 -76.504 
-4.721 -0.199 -72.998 
-4.618 0.005 -72.999 
10.392 8.026 -70.411 
10.330 8.061 -70.650 
4.491 -11.710 -63.882 
4.461 -11.681 -63.995 
11.719 1.102 -71.287 
11.763 1.260 -71.430 
-2.437 11.953 -67.544 
-2.642 12.145 -67.597 
10.647 8.086 -67.886 
10.663 8.241 -67.995 
6.485 2.646 -63.633 
6.462 2.923 -63.687 
-6.238 -4.591 -64.478 
-6.154 -4.469 -64.323 
12.361 -0.795 -71.822 
12.357 -0.679 -71.976 
7.586 3.157 -61.995 
7.613 3.487 -61.891 
11.701 2.720 -66.423 
11.806 2.946 -66.477 
-4.438 -7.495 -63.870 
-4.240 -7.250 -64.110 
-3.323 -6.065 -72.625 
-3.181 -5.912 -72.609 
-1.381 8.189 -73.024 
-1.393 8.352 -73.159 
8.497 -3.518 -69.255 
[...]
POINT_DATA 1010 
SCALARS Umean double 1 
LOOKUP_TABLE default
0.11587 
0.11587 
0.05266 
0.05266 
0.11889 
0.11889 
0.16464 
0.16464 
0.07820 
0.07820 
0.09128 
0.09128 
0.10880 
0.10880 
0.06321 
0.06321 
0.07433 
0.07433 
0.04903 
0.04903 
0.13947 
0.13947 
0.05831 
0.05831 
0.06516 
0.06516 
0.04379 
0.04379 
0.11717 
0.11717 
0.11014 
0.11014 
0.10336 
0.10336 
0.12075 
0.12075 
0.08757 
0.08757 
0.17784 
0.17784 
0.10770 
0.10770 
0.14672 
0.14672 
0.11205 
0.11205 
0.11639 
0.11639 
0.11285 
0.11285 
0.10734 
0.10734 
0.18905 
0.18905 
0.11923 
0.11923 
0.06302 
0.06302 
0.15362 
0.15362 
0.20587 
0.20587 
0.16724 
0.16724 
0.20439 
0.20439 
0.04625 
0.04625 
0.06790 
0.06790 
0.06930 
0.06930 
0.05646 
0.05646 
0.07170 
0.07170 
0.17027 
0.17027 
0.12509 
0.12509 
0.07826 
0.07826 
0.14510 
0.14510 
0.12837 
0.12837 
0.09166 
0.09166 
0.17186 
0.17186 
0.08252 
0.08252 
0.06049 
0.06049 
0.11876 
0.11876 
0.02104 
0.02104 
0.08500 
0.08500 
0.11471 
0.11471 
0.05133 
0.05133 
0.13784 
0.13784 
0.08762 
0.08762 
0.08938 
0.08938 
0.10271 
0.10271 
0.11487 
0.11487 
0.09328 
0.09328 
0.11469 
0.11469 
0.09792 
0.09792 
0.15410 
0.15410 
0.09975 
0.09975 
0.21197 
0.21197 
0.15049 
0.15049 
0.09668 
0.09668 
0.10514 
0.10514 
0.16850 
0.16850 
0.14679 
0.14679 
0.17187 
0.17187 
0.13992 
0.13992 
0.14493 
0.14493 
0.16408 
0.16408 
0.14365 
0.14365 
0.09159 
0.09159 
0.15850 
0.15850 
0.12489 
0.12489 
0.15611 
0.15611 
0.09760 
0.09760 
0.11154 
0.11154 
0.06531 
0.06531 
0.12025 
0.12025 
0.11224 
0.11224 
0.10127 
0.10127 
0.17924 
0.17924 
0.11854 
0.11854 
0.04776 
0.04776 
0.15324 
0.15324 
0.11594 
0.11594 
0.12566 
0.12566 
0.19651 
0.19651 
0.15865 
0.15865 
0.24411 
0.24411 
0.12545 
0.12545 
0.13188 
0.13188 
0.09524 
0.09524 
0.11395 
0.11395 
0.07884 
0.07884 
0.07135 
0.07135 
0.09920 
0.09920 
0.14098 
0.14098 
0.09681 
0.09681 
0.13016 
0.13016 
0.11565 
0.11565 
0.09863 
0.09863 
0.12889 
0.12889 
0.07660 
0.07660 
0.12645 
0.12645 
0.11960 
0.11960 
0.12314 
0.12314 
0.04824 
0.04824 
0.18499 
0.18499 
0.14593 
0.14593 
0.08363 
0.08363 
0.12241 
0.12241 
0.08285 
0.08285 
0.06538 
0.06538 
0.06269 
0.06269 
0.22169 
0.22169 
0.11606 
0.11606 
0.11944 
0.11944 
0.10219 
0.10219 
0.05361 
0.05361 
0.13976 
0.13976 
0.12615 
0.12615 
0.17920 
0.17920 
0.11763 
0.11763 
0.12952 
0.12952 
0.13049 
0.13049 
0.12653 
0.12653 
0.10561 
0.10561 
0.10428 
0.10428 
0.13396 
0.13396 
0.02913 
0.02913 
0.14965 
0.14965 
0.05971 
0.05971 
0.13350 
0.13350 
0.15153 
0.15153 
0.15985 
0.15985 
0.19239 
0.19239 
0.14676 
0.14676 
0.13713 
0.13713 
0.08204 
0.08204 
0.17899 
0.17899 
0.11034 
0.11034 
0.12721 
0.12721 
0.12788 
0.12788 
0.12323 
0.12323 
0.03663 
0.03663 
0.08755 
0.08755 
0.08822 
0.08822 
0.09879 
0.09879 
0.11072 
0.11072 
0.09973 
0.09973 
0.16210 
0.16210 
0.14543 
0.14543 
0.04923 
0.04923 
0.14706 
0.14706 
0.07505 
0.07505 
0.09183 
0.09183 
0.17574 
0.17574 
0.13487 
0.13487 
0.18530 
0.18530 
0.08733 
0.08733 
0.08125 
0.08125 
0.10087 
0.10087 
0.14809 
0.14809 
0.07071 
0.07071 
0.08091 
0.08091 
0.13264 
0.13264 
0.08194 
0.08194 
0.18337 
0.18337 
0.17436 
0.17436 
0.14271 
0.14271 
0.07877 
0.07877 
0.11425 
0.11425 
0.04260 
0.04260 
0.09135 
0.09135 
0.07849 
0.07849 
0.05506 
0.05506 
0.07271 
0.07271 
0.14509 
0.14509 
0.09238 
0.09238 
0.14058 
0.14058 
0.05063 
0.05063 
0.07208 
0.07208 
0.12653 
0.12653 
0.17327 
0.17327 
0.14092 
0.14092 
0.14186 
0.14186 
0.07062 
0.07062 
0.09803 
0.09803 
0.15702 
0.15702 
0.07723 
0.07723 
0.07362 
0.07362 
0.16008 
0.16008 
0.07117 
0.07117 
0.08434 
0.08434 
0.08570 
0.08570 
0.05559 
0.05559 
0.11076 
0.11076 
0.12552 
0.12552 
0.16955 
0.16955 
0.14268 
0.14268 
0.16637 
0.16637 
0.03912 
0.03912 
0.05618 
0.05618 
0.11427 
0.11427 
0.12469 
0.12469 
0.06023 
0.06023 
0.10880 
0.10880 
0.14291 
0.14291 
0.09508 
0.09508 
0.14158 
0.14158 
0.10720 
0.10720 
0.09642 
0.09642 
0.17353 
0.17353 
0.12749 
0.12749 
0.19801 
0.19801 
0.10468 
0.10468 
0.10599 
0.10599 
0.15549 
0.15549 
0.16510 
0.16510 
0.12661 
0.12661 
0.08960 
0.08960 
0.05506 
0.05506 
0.18845 
0.18845 
0.20208 
0.20208 
0.13255 
0.13255 
0.17139 
0.17139 
0.11453 
0.11453 
0.22180 
0.22180 
0.09260 
0.09260 
0.02376 
0.02376 
0.08194 
0.08194 
0.15678 
0.15678 
0.04655 
0.04655 
0.12474 
0.12474 
0.26381 
0.26381 
0.07426 
0.07426 
0.08832 
0.08832 
0.20519 
0.20519 
0.14539 
0.14539 
0.10006 
0.10006 
0.23035 
0.23035 
0.15489 
0.15489 
0.13192 
0.13192 
0.12625 
0.12625 
0.09054 
0.09054 
0.15027 
0.15027 
0.13644 
0.13644 
0.15387 
0.15387 
0.07818 
0.07818 
0.13689 
0.13689 
0.20571 
0.20571 
0.05815 
0.05815 
0.04509 
0.04509 
0.02365 
0.02365 
0.17577 
0.17577 
0.13067 
0.13067 
0.12098 
0.12098 
0.13021 
0.13021 
0.06068 
0.06068 
0.09268 
0.09268 
0.14155 
0.14155 
0.19046 
0.19046 
0.04291 
0.04291 
0.12647 
0.12647 
0.18113 
0.18113 
0.15573 
0.15573 
0.10383 
0.10383 
0.11336 
0.11336 
0.07507 
0.07507 
0.13032 
0.13032 
0.11462 
0.11462 
0.10119 
0.10119 
0.08465 
0.08465 
0.11399 
0.11399 
0.11009 
0.11009 
0.05656 
0.05656 
0.17230 
0.17230 
0.12679 
0.12679 
0.06586 
0.06586 
0.10427 
0.10427 
0.10701 
0.10701 
0.16505 
0.16505 
0.14253 
0.14253 
0.15184 
0.15184 
0.13616 
0.13616 
0.14747 
0.14747 
0.07310 
0.07310 
0.04176 
0.04176 
0.04462 
0.04462 
0.08287 
0.08287 
0.12130 
0.12130 
0.14619 
0.14619 
0.09332 
0.09332 
0.13419 
0.13419 
0.23358 
0.23358 
0.14764 
0.14764 
0.13837 
0.13837 
0.11481 
0.11481 
0.07798 
0.07798 
0.05731 
0.05731 
0.15716 
0.15716 
0.05127 
0.05127 
0.03873 
0.03873 
0.09877 
0.09877 
0.24825 
0.24825 
0.21992 
0.21992 
0.10750 
0.10750 
0.13580 
0.13580 
0.15113 
0.15113 
0.11505 
0.11505 
0.10473 
0.10473 
0.13667 
0.13667 
0.13345 
0.13345 
0.11497 
0.11497 
0.09831 
0.09831 
0.02234 
0.02234 
0.05701 
0.05701 
0.14552 
0.14552 
0.11075 
0.11075 
0.09645 
0.09645 
0.08985 
0.08985 
0.05973 
0.05973 
0.16509 
0.16509 
0.12188 
0.12188 
0.12781 
0.12781 
0.13741 
0.13741 
0.11383 
0.11383 
0.07519 
0.07519 
0.05581 
0.05581 
0.08521 
0.08521 
0.13900 
0.13900 
0.06571 
0.06571 
0.13916 
0.13916 
0.02171 
0.02171 
0.06969 
0.06969 
0.20605 
0.20605 
0.11054 
0.11054 
0.13352 
0.13352 
0.13216 
0.13216 
0.05850 
0.05850 
0.11137 
0.11137 
0.04646 
0.04646 
0.16267 
0.16267 
0.21116 
0.21116 
0.15645 
0.15645 
0.14819 
0.14819 
0.11002 
0.11002 
0.12945 
0.12945 
0.14766 
0.14766 
0.06220 
0.06220 
0.22573 
0.22573 
0.17039 
0.17039 
0.09379 
0.09379 
0.10384 
0.10384 
0.08459 
0.08459 
0.05899 
0.05899 
0.13349 
0.13349 
0.12402 
0.12402 
0.15817 
0.15817 
0.06071 
0.06071 
0.17571 
0.17571 
0.11570 
0.11570 
0.08842 
0.08842 
0.08523 
0.08523 
0.07983 
0.07983 
0.17503 
0.17503 
0.13496 
0.13496 
0.17104 
0.17104 
0.08562 
0.08562 
0.09840 
0.09840 
0.16915 
0.16915 
0.12010 
0.12010 
0.13575 
0.13575 
0.12032 
0.12032 
0.14317 
0.14317 
0.07396 
0.07396 
0.14700 
0.14700 
0.07939 
0.07939 
0.09253 
0.09253 
0.18554 
0.18554 
0.14331 
0.14331 
0.13782 
0.13782 
0.08762 
0.08762 
0.05173 
0.05173 
0.13888 
0.13888 
0.20990 
0.20990 
0.10167 
0.10167 
0.12298 
0.12298 
0.17080 
0.17080 
0.05894 
0.05894 
0.12139 
0.12139 
0.15581 
0.15581 
0.17016 
0.17016 
0.17649 
0.17649 
0.14229 
0.14229 
0.10755 
0.10755 
0.21434 
0.21434 
0.13405 
0.13405 
0.18094 
0.18094 
0.13183 
0.13183 
0.10090 
0.10090 
0.04463 
0.04463 
0.16851 
0.16851 
0.06959 
0.06959 
0.02795 
0.02795 
0.12156 
0.12156 
0.16892 
0.16892 
0.06200 
0.06200 
0.14224 
0.14224 
0.15310 
0.15310 
0.16428 
0.16428 
0.17488 
0.17488 
0.06378 
0.06378 
0.07783 
0.07783 
0.04766 
0.04766 
0.06738 
0.06738 
0.18635 
0.18635 
0.16997 
0.16997 
0.14430 
0.14430 
0.15567 
0.15567 
0.12031 
0.12031 
0.18487 
0.18487 
0.06414 
0.06414 
0.12388 
0.12388 
0.16641 
0.16641 
0.06860 
0.06860 
0.08080 
0.08080 
0.12243 
0.12243 
0.12250 
0.12250 
0.11029 
0.11029 
0.08217 
0.08217 
0.10203 
0.10203 
0.10845 
0.10845 
0.10444 
0.10444 
0.08033 
0.08033 
0.14043 
0.14043 
0.11206 
0.11206 
0.15304 
0.15304 
0.08411 
0.08411 
0.08705 
0.08705 
0.21251 
0.21251 
0.07123 
0.07123 
0.10902 
0.10902 
0.07565 
0.07565 
0.13384 
0.13384 
0.10580 
0.10580 
0.15109 
0.15109 
0.07679 
0.07679 
0.16665 
0.16665 
0.06700 
0.06700 
0.08527 
0.08527 
0.11788 
0.11788 
0.08533 
0.08533 
0.06552 
0.06552 
0.20043 
0.20043 
0.07373 
0.07373 
0.09987 
0.09987 
0.13326 
0.13326 
0.08063 
0.08063 
0.05840 
0.05840 
0.18607 
0.18607 
0.12380 
0.12380 
0.05198 
0.05198 
0.04087 
0.04087 
0.15348 
0.15348 
0.05355 
0.05355 
0.04995 
0.04995 
0.10643 
0.10643 
0.15786 
0.15786 
0.10852 
0.10852 
0.05883 
0.05883 
0.08148 
0.08148 
0.02397 
0.02397 
0.10351 
0.10351 
0.10552 
0.10552 
0.04229 
0.04229 
0.05293 
0.05293 
0.06553 
0.06553 
0.16729 
0.16729 
0.09146 
0.09146 
0.11216 
0.11216 
0.14289 
0.14289 
0.20170 
0.20170 
0.10935 
0.10935 
0.12000 
0.12000 
0.08839 
0.08839 
0.12827 
0.12827 
0.09290 
0.09290 
0.22255 
0.22255 
0.21887 
0.21887 
0.11228 
0.11228 
0.11322 
0.11322 
0.13483 
0.13483 
0.12169 
0.12169 
0.10398 
0.10398 
0.08432 
0.08432 
0.07633 
0.07633 
0.06383 
0.06383 
0.05646 
0.05646 
0.22418 
0.22418 
0.19035 
0.19035 
0.09552 
0.09552 
SCALARS Umean_X double 1 
LOOKUP_TABLE default
0.01150 
0.01150 
0.03300 
0.03300 
0.04650 
0.04650 
0.06050 
0.06050 
0.01800 
0.01800 
-0.03450 
-0.03450 
0.04400 
0.04400 
0.03400 
0.03400 
0.02150 
0.02150 
-0.00050 
-0.00050 
0.03350 
0.03350 
-0.02700 
-0.02700 
-0.05050 
-0.05050 
-0.02850 
-0.02850 
0.02050 
0.02050 
-0.05600 
-0.05600 
-0.00850 
-0.00850 
0.06550 
0.06550 
0.05800 
0.05800 
0.02250 
0.02250 
0.05350 
0.05350 
0.06300 
0.06300 
-0.01650 
-0.01650 
0.04500 
0.04500 
-0.04950 
-0.04950 
0.05750 
0.05750 
0.08500 
0.08500 
0.05250 
0.05250 
0.05200 
0.05200 
-0.05900 
-0.05900 
0.07150 
0.07150 
0.03950 
0.03950 
0.13650 
0.13650 
-0.04550 
-0.04550 
-0.04800 
-0.04800 
0.05450 
0.05450 
-0.02100 
-0.02100 
-0.05400 
-0.05400 
0.08600 
0.08600 
0.05550 
0.05550 
0.03500 
0.03500 
0.00350 
0.00350 
0.00600 
0.00600 
-0.00750 
-0.00750 
0.07700 
0.07700 
0.01500 
0.01500 
0.04350 
0.04350 
-0.00300 
-0.00300 
-0.00950 
-0.00950 
0.00500 
0.00500 
0.04100 
0.04100 
0.03750 
0.03750 
-0.00500 
-0.00500 
0.01850 
0.01850 
-0.00900 
-0.00900 
0.07150 
0.07150 
0.00250 
0.00250 
-0.01850 
-0.01850 
0.00450 
0.00450 
-0.06400 
-0.06400 
0.01000 
0.01000 
-0.03400 
-0.03400 
0.07900 
0.07900 
0.02100 
0.02100 
0.00950 
0.00950 
0.02850 
0.02850 
0.05700 
0.05700 
0.02750 
0.02750 
0.01500 
0.01500 
-0.00100 
-0.00100 
-0.03100 
-0.03100 
0.04550 
0.04550 
0.02950 
0.02950 
0.01200 
0.01200 
-0.03350 
-0.03350 
0.09250 
0.09250 
0.02450 
0.02450 
-0.01700 
-0.01700 
0.03450 
0.03450 
0.00600 
0.00600 
0.03500 
0.03500 
0.05050 
0.05050 
-0.01000 
-0.01000 
0.05750 
0.05750 
0.04750 
0.04750 
0.00600 
0.00600 
-0.01800 
-0.01800 
-0.03450 
-0.03450 
0.03150 
0.03150 
0.04150 
0.04150 
0.06250 
0.06250 
0.13000 
0.13000 
0.04750 
0.04750 
0.08250 
0.08250 
-0.01100 
-0.01100 
0.04700 
0.04700 
0.02050 
0.02050 
0.02050 
0.02050 
0.00550 
0.00550 
0.01600 
0.01600 
0.03000 
0.03000 
0.07800 
0.07800 
0.04800 
0.04800 
0.00500 
0.00500 
0.06350 
0.06350 
0.02200 
0.02200 
0.01550 
0.01550 
0.04500 
0.04500 
0.03250 
0.03250 
-0.03500 
-0.03500 
0.05600 
0.05600 
0.01300 
0.01300 
0.01950 
0.01950 
0.02900 
0.02900 
0.06450 
0.06450 
-0.02150 
-0.02150 
-0.04650 
-0.04650 
0.02650 
0.02650 
-0.07050 
-0.07050 
0.11550 
0.11550 
-0.01300 
-0.01300 
0.02650 
0.02650 
0.08350 
0.08350 
0.02450 
0.02450 
0.04250 
0.04250 
0.06100 
0.06100 
-0.00300 
-0.00300 
-0.06050 
-0.06050 
0.06050 
0.06050 
-0.00050 
-0.00050 
0.03500 
0.03500 
-0.05800 
-0.05800 
0.00450 
0.00450 
0.00550 
0.00550 
0.00700 
0.00700 
0.04100 
0.04100 
0.01050 
0.01050 
0.03500 
0.03500 
0.03250 
0.03250 
-0.08000 
-0.08000 
0.02650 
0.02650 
-0.03250 
-0.03250 
0.15950 
0.15950 
0.01050 
0.01050 
0.01250 
0.01250 
-0.01650 
-0.01650 
-0.03750 
-0.03750 
0.00650 
0.00650 
-0.03600 
-0.03600 
0.02850 
0.02850 
0.01650 
0.01650 
-0.02100 
-0.02100 
0.02950 
0.02950 
-0.05350 
-0.05350 
0.12000 
0.12000 
-0.01450 
-0.01450 
0.08900 
0.08900 
0.05100 
0.05100 
0.04950 
0.04950 
0.08800 
0.08800 
0.06550 
0.06550 
0.12400 
0.12400 
-0.07200 
-0.07200 
0.04600 
0.04600 
0.04500 
0.04500 
-0.02550 
-0.02550 
-0.03850 
-0.03850 
0.07300 
0.07300 
0.00100 
0.00100 
0.03700 
0.03700 
-0.06150 
-0.06150 
0.03150 
0.03150 
0.01700 
0.01700 
0.04850 
0.04850 
-0.02250 
-0.02250 
-0.00150 
-0.00150 
0.01100 
0.01100 
0.03300 
0.03300 
-0.01500 
-0.01500 
0.01150 
0.01150 
0.02200 
0.02200 
0.05000 
0.05000 
-0.00400 
-0.00400 
-0.02650 
-0.02650 
-0.06300 
-0.06300 
0.06050 
0.06050 
0.04200 
0.04200 
0.06650 
0.06650 
0.01000 
0.01000 
0.00250 
0.00250 
0.09100 
0.09100 
-0.01350 
-0.01350 
0.03800 
0.03800 
0.03200 
0.03200 
0.02850 
0.02850 
0.04600 
0.04600 
-0.05700 
-0.05700 
0.03950 
0.03950 
0.04200 
0.04200 
0.05650 
0.05650 
0.05850 
0.05850 
0.10750 
0.10750 
0.08350 
0.08350 
0.06300 
0.06300 
-0.02250 
-0.02250 
0.04850 
0.04850 
0.05150 
0.05150 
-0.03100 
-0.03100 
-0.01500 
-0.01500 
0.02200 
0.02200 
-0.10250 
-0.10250 
0.00800 
0.00800 
-0.01150 
-0.01150 
0.04200 
0.04200 
-0.00200 
-0.00200 
0.01350 
0.01350 
0.05250 
0.05250 
0.09900 
0.09900 
0.07100 
0.07100 
-0.00600 
-0.00600 
0.11400 
0.11400 
0.02200 
0.02200 
0.04350 
0.04350 
0.03000 
0.03000 
0.03850 
0.03850 
-0.13750 
-0.13750 
0.14250 
0.14250 
0.04450 
0.04450 
0.05100 
0.05100 
0.01400 
0.01400 
0.12950 
0.12950 
-0.06300 
-0.06300 
0.01650 
0.01650 
0.00500 
0.00500 
0.15550 
0.15550 
-0.02250 
-0.02250 
-0.01150 
-0.01150 
0.15900 
0.15900 
0.02500 
0.02500 
0.01500 
0.01500 
0.01150 
0.01150 
-0.06700 
-0.06700 
-0.03850 
-0.03850 
0.16000 
0.16000 
0.05050 
0.05050 
0.05850 
0.05850 
-0.08700 
-0.08700 
-0.01350 
-0.01350 
0.04600 
0.04600 
0.04150 
0.04150 
0.05050 
0.05050 
0.04100 
0.04100 
0.09100 
0.09100 
0.04700 
0.04700 
-0.01600 
-0.01600 
0.03050 
0.03050 
-0.01150 
-0.01150 
0.03850 
0.03850 
-0.04200 
-0.04200 
0.05450 
0.05450 
0.06200 
0.06200 
-0.04900 
-0.04900 
0.04300 
0.04300 
-0.00050 
-0.00050 
0.11700 
0.11700 
0.03900 
0.03900 
-0.04950 
-0.04950 
0.05850 
0.05850 
0.01950 
0.01950 
-0.04000 
-0.04000 
-0.07500 
-0.07500 
0.04800 
0.04800 
-0.10550 
-0.10550 
-0.01350 
-0.01350 
-0.05250 
-0.05250 
0.05950 
0.05950 
0.02150 
0.02150 
0.04150 
0.04150 
-0.01500 
-0.01500 
0.07200 
0.07200 
0.01800 
0.01800 
-0.01250 
-0.01250 
0.05800 
0.05800 
0.01450 
0.01450 
0.12300 
0.12300 
0.10350 
0.10350 
0.12550 
0.12550 
-0.00650 
-0.00650 
-0.00100 
-0.00100 
-0.03550 
-0.03550 
0.02150 
0.02150 
-0.00200 
-0.00200 
-0.08100 
-0.08100 
-0.05000 
-0.05000 
0.09550 
0.09550 
0.03200 
0.03200 
0.00250 
0.00250 
0.11450 
0.11450 
0.03350 
0.03350 
0.02100 
0.02100 
0.05550 
0.05550 
0.03650 
0.03650 
0.02800 
0.02800 
0.11200 
0.11200 
0.01150 
0.01150 
-0.02550 
-0.02550 
-0.01850 
-0.01850 
0.01300 
0.01300 
0.14600 
0.14600 
0.06100 
0.06100 
0.08450 
0.08450 
0.02300 
0.02300 
0.08800 
0.08800 
0.02200 
0.02200 
0.04150 
0.04150 
-0.03600 
-0.03600 
0.03900 
0.03900 
0.03700 
0.03700 
0.00300 
0.00300 
-0.03800 
-0.03800 
-0.03850 
-0.03850 
-0.01450 
-0.01450 
0.03550 
0.03550 
0.03950 
0.03950 
0.03800 
0.03800 
0.07200 
0.07200 
-0.06700 
-0.06700 
-0.02650 
-0.02650 
0.02050 
0.02050 
-0.02350 
-0.02350 
0.07000 
0.07000 
-0.03350 
-0.03350 
-0.06100 
-0.06100 
0.02050 
0.02050 
0.01250 
0.01250 
0.05450 
0.05450 
-0.00300 
-0.00300 
-0.01000 
-0.01000 
0.04850 
0.04850 
0.04250 
0.04250 
-0.01100 
-0.01100 
0.07550 
0.07550 
-0.00700 
-0.00700 
-0.07150 
-0.07150 
0.04150 
0.04150 
0.01750 
0.01750 
0.06250 
0.06250 
0.05500 
0.05500 
-0.10650 
-0.10650 
-0.03200 
-0.03200 
0.02500 
0.02500 
-0.01800 
-0.01800 
-0.03750 
-0.03750 
0.05650 
0.05650 
0.01650 
0.01650 
0.00650 
0.00650 
0.02650 
0.02650 
0.03850 
0.03850 
0.02900 
0.02900 
-0.11300 
-0.11300 
-0.00300 
-0.00300 
0.08250 
0.08250 
0.02850 
0.02850 
0.10350 
0.10350 
0.00550 
0.00550 
-0.04650 
-0.04650 
0.05450 
0.05450 
0.00600 
0.00600 
-0.00950 
-0.00950 
0.01600 
0.01600 
0.07800 
0.07800 
0.03800 
0.03800 
0.09400 
0.09400 
-0.08000 
-0.08000 
0.06850 
0.06850 
-0.04250 
-0.04250 
0.07050 
0.07050 
0.05050 
0.05050 
-0.02100 
-0.02100 
0.03500 
0.03500 
-0.00450 
-0.00450 
0.02150 
0.02150 
0.16500 
0.16500 
-0.08600 
-0.08600 
0.04350 
0.04350 
0.02950 
0.02950 
0.04750 
0.04750 
0.03950 
0.03950 
0.04700 
0.04700 
0.03200 
0.03200 
-0.09600 
-0.09600 
0.13900 
0.13900 
0.00250 
0.00250 
-0.03200 
-0.03200 
0.12200 
0.12200 
-0.08750 
-0.08750 
0.08200 
0.08200 
-0.07700 
-0.07700 
0.00500 
0.00500 
0.11350 
0.11350 
0.01600 
0.01600 
0.07850 
0.07850 
0.04550 
0.04550 
0.09250 
0.09250 
-0.00300 
-0.00300 
0.04850 
0.04850 
-0.03100 
-0.03100 
0.00500 
0.00500 
0.10850 
0.10850 
0.11250 
0.11250 
-0.02850 
-0.02850 
0.07850 
0.07850 
0.06400 
0.06400 
0.02700 
0.02700 
0.09050 
0.09050 
-0.04400 
-0.04400 
0.04500 
0.04500 
-0.03750 
-0.03750 
0.05800 
0.05800 
0.15500 
0.15500 
0.00800 
0.00800 
0.09250 
0.09250 
0.14150 
0.14150 
0.04300 
0.04300 
-0.00200 
-0.00200 
-0.01200 
-0.01200 
0.11800 
0.11800 
0.05350 
0.05350 
0.00050 
0.00050 
-0.00800 
-0.00800 
-0.09050 
-0.09050 
-0.06000 
-0.06000 
0.10400 
0.10400 
0.02650 
0.02650 
-0.01150 
-0.01150 
-0.06750 
-0.06750 
-0.04900 
-0.04900 
0.06600 
0.06600 
0.01600 
0.01600 
-0.06350 
-0.06350 
-0.05300 
-0.05300 
-0.03550 
-0.03550 
0.00750 
0.00750 
0.05750 
0.05750 
0.04500 
0.04500 
-0.01650 
-0.01650 
0.04300 
0.04300 
0.00650 
0.00650 
-0.01150 
-0.01150 
0.11300 
0.11300 
0.04450 
0.04450 
0.06500 
0.06500 
-0.06400 
-0.06400 
0.01750 
0.01750 
0.05350 
0.05350 
-0.02550 
-0.02550 
0.04200 
0.04200 
0.06500 
0.06500 
-0.00450 
-0.00450 
0.05150 
0.05150 
-0.06100 
-0.06100 
0.00050 
0.00050 
0.00600 
0.00600 
0.13850 
0.13850 
0.03150 
0.03150 
0.02150 
0.02150 
-0.01950 
-0.01950 
0.05650 
0.05650 
0.01400 
0.01400 
-0.02550 
-0.02550 
-0.02150 
-0.02150 
0.02050 
0.02050 
0.00400 
0.00400 
-0.01600 
-0.01600 
-0.01100 
-0.01100 
0.01600 
0.01600 
0.03100 
0.03100 
0.01100 
0.01100 
-0.01950 
-0.01950 
0.02700 
0.02700 
0.02050 
0.02050 
0.01650 
0.01650 
0.00300 
0.00300 
-0.01800 
-0.01800 
0.01100 
0.01100 
0.10750 
0.10750 
-0.10050 
-0.10050 
0.02800 
0.02800 
0.01800 
0.01800 
-0.01500 
-0.01500 
-0.05000 
-0.05000 
0.07350 
0.07350 
0.14300 
0.14300 
-0.03250 
-0.03250 
-0.02250 
-0.02250 
0.03050 
0.03050 
0.03900 
0.03900 
-0.04650 
-0.04650 
-0.05850 
-0.05850 
0.05700 
0.05700 
0.01050 
0.01050 
0.02150 
0.02150 
0.09100 
0.09100 
0.06300 
0.06300 
-0.02750 
-0.02750 
SCALARS Umean_Y double 1 
LOOKUP_TABLE default
0.07950 
0.07950 
0.02800 
0.02800 
0.09050 
0.09050 
0.12600 
0.12600 
0.04550 
0.04550 
0.06700 
0.06700 
0.09900 
0.09900 
0.01700 
0.01700 
0.05850 
0.05850 
0.04900 
0.04900 
0.12500 
0.12500 
0.04700 
0.04700 
0.01700 
0.01700 
0.03100 
0.03100 
0.08850 
0.08850 
0.04850 
0.04850 
0.09450 
0.09450 
0.09300 
0.09300 
0.06350 
0.06350 
0.16400 
0.16400 
0.07250 
0.07250 
0.13250 
0.13250 
0.05450 
0.05450 
0.09650 
0.09650 
0.09500 
0.09500 
0.06750 
0.06750 
0.14350 
0.14350 
0.10200 
0.10200 
0.03500 
0.03500 
0.04650 
0.04650 
0.17000 
0.17000 
0.15800 
0.15800 
0.13000 
0.13000 
0.00350 
0.00350 
0.03000 
0.03000 
0.03950 
0.03950 
0.02600 
0.02600 
0.04400 
0.04400 
0.09800 
0.09800 
0.10600 
0.10600 
0.06200 
0.06200 
0.12100 
0.12100 
0.11950 
0.11950 
0.07950 
0.07950 
0.14750 
0.14750 
0.04650 
0.04650 
0.03750 
0.03750 
0.11750 
0.11750 
-0.01250 
-0.01250 
0.05950 
0.05950 
0.08400 
0.08400 
0.02350 
0.02350 
0.12250 
0.12250 
0.08500 
0.08500 
0.05150 
0.05150 
0.07150 
0.07150 
0.11150 
0.11150 
0.07750 
0.07750 
0.11100 
0.11100 
-0.00950 
-0.00950 
0.09800 
0.09800 
0.08700 
0.08700 
0.18900 
0.18900 
0.13850 
0.13850 
0.09400 
0.09400 
0.08150 
0.08150 
0.15850 
0.15850 
0.12550 
0.12550 
0.15900 
0.15900 
0.13900 
0.13900 
0.11050 
0.11050 
0.14150 
0.14150 
0.13950 
0.13950 
0.08900 
0.08900 