# vtk DataFile Version 2.1 
Trajects from timestep 93 with color option 
ASCII 
 
DATASET POLYDATA POINTS 990 float 
-7.677 4.017 -72.589 
-7.559 4.103 -72.615 
5.914 2.631 -70.487 
5.954 2.933 -70.580 
3.023 10.218 -70.938 
3.030 10.456 -71.023 
-2.305 -1.264 -70.200 
-2.231 -1.007 -70.224 
-0.084 9.866 -72.022 
-0.122 10.010 -72.135 
-0.660 1.977 -69.240 
-0.675 2.229 -69.189 
-6.644 -4.199 -71.565 
-6.610 -3.945 -71.674 
3.180 10.938 -71.297 
3.089 11.209 -71.419 
-4.636 3.274 -69.917 
-4.539 3.597 -69.838 
4.919 -1.347 -71.132 
5.009 -1.023 -71.432 
-6.907 -0.398 -70.421 
-6.842 -0.250 -70.411 
10.726 4.842 -73.143 
10.816 5.025 -73.344 
-3.442 -3.500 -72.071 
-3.293 -3.404 -71.952 
0.409 -4.069 -71.238 
0.588 -3.827 -71.394 
-1.502 2.624 -69.312 
-1.410 2.856 -69.296 
7.574 1.990 -74.329 
7.503 2.235 -74.305 
10.623 6.528 -69.099 
10.597 6.661 -69.368 
12.388 1.071 -68.296 
12.454 1.251 -68.413 
-6.633 -2.879 -71.678 
-6.474 -2.564 -71.710 
-8.223 7.944 -68.994 
-8.050 7.961 -68.933 
-10.049 -0.324 -71.324 
-10.086 -0.083 -71.222 
-5.607 8.067 -66.485 
-5.441 8.336 -66.502 
6.418 4.892 -71.020 
6.360 5.139 -71.210 
7.760 -5.644 -68.548 
7.848 -5.574 -68.509 
-12.849 -8.952 -71.019 
-12.621 -8.749 -71.001 
3.774 2.383 -70.471 
3.795 2.611 -70.536 
-4.686 -3.114 -69.122 
-4.486 -2.945 -69.285 
6.065 0.371 -67.810 
6.246 0.619 -67.986 
6.264 12.611 -64.802 
6.307 12.864 -64.679 
14.978 3.535 -69.519 
15.101 3.568 -69.587 
6.849 0.076 -73.065 
6.961 0.187 -73.204 
0.085 -5.028 -72.476 
0.205 -4.911 -72.606 
-7.378 -4.429 -71.334 
-7.277 -4.154 -71.408 
-0.621 3.997 -66.975 
-0.545 4.220 -66.884 
-2.212 8.935 -66.075 
-2.173 9.126 -66.092 
-2.336 0.753 -73.686 
-2.339 1.071 -73.734 
6.955 11.672 -67.502 
6.946 11.775 -67.490 
8.181 -11.005 -75.370 
8.226 -11.070 -75.569 
5.576 -8.557 -74.127 
5.854 -8.338 -74.185 
-7.578 5.638 -65.023 
-7.541 5.984 -64.694 
4.118 12.130 -67.467 
4.102 12.290 -67.487 
-15.390 9.247 -74.635 
-15.334 9.354 -74.628 
-1.401 4.288 -71.065 
-1.227 4.533 -71.085 
4.559 -6.563 -67.748 
4.746 -6.330 -68.083 
-3.841 0.860 -73.611 
-3.741 1.030 -73.485 
-2.163 5.906 -67.821 
-2.078 6.112 -67.735 
-4.951 8.454 -71.134 
-4.859 8.560 -71.073 
10.514 10.410 -70.043 
10.354 10.425 -70.228 
-0.587 7.685 -68.570 
-0.507 7.803 -68.541 
3.843 -6.449 -67.745 
3.965 -6.221 -68.063 
-2.650 -1.367 -66.393 
-2.655 -1.156 -66.402 
-5.541 -8.322 -71.132 
-5.363 -8.064 -71.080 
-9.941 -3.964 -68.757 
-9.993 -3.660 -68.795 
-8.339 4.603 -72.244 
-8.242 4.667 -72.278 
9.993 -3.028 -71.673 
10.191 -2.871 -71.863 
-11.063 -3.123 -73.368 
-10.889 -2.949 -73.449 
-14.861 6.354 -70.653 
-14.897 6.403 -70.739 
-10.853 8.890 -70.028 
-10.698 8.976 -69.955 
0.030 -1.153 -68.174 
0.171 -0.985 -68.295 
-5.804 4.913 -64.176 
-5.784 5.168 -63.901 
-1.711 10.671 -67.408 
-1.610 10.907 -67.408 
-12.653 8.763 -70.049 
-12.511 8.840 -70.073 
9.170 10.288 -66.916 
9.206 10.424 -66.906 
-6.333 4.327 -64.662 
-6.205 4.706 -64.505 
-5.731 1.261 -63.559 
-5.643 1.468 -63.535 
0.650 -0.391 -69.126 
0.842 -0.151 -69.198 
-11.623 8.965 -72.559 
-11.558 9.092 -72.559 
15.855 9.989 -72.247 
15.632 9.892 -72.087 
10.763 -7.786 -68.108 
10.978 -7.675 -68.212 
-2.452 -1.827 -63.559 
-2.368 -1.663 -63.685 
2.359 8.532 -72.375 
2.238 8.823 -72.466 
2.240 -8.500 -73.529 
2.353 -8.143 -73.633 
-7.071 3.961 -74.082 
-6.962 4.048 -74.080 
3.517 -7.663 -71.451 
3.683 -7.601 -71.585 
-5.546 3.163 -64.931 
-5.379 3.425 -64.861 
-9.321 7.535 -66.816 
-9.059 7.816 -66.838 
-3.403 3.632 -67.759 
-3.269 3.896 -67.740 
7.623 0.975 -74.541 
7.488 1.139 -74.553 
-4.345 -5.529 -70.982 
-4.328 -5.275 -70.946 
-9.767 -2.201 -70.956 
-9.726 -2.015 -70.992 
0.320 10.826 -72.020 
0.025 11.063 -72.063 
10.074 -9.711 -67.398 
10.205 -9.555 -67.294 
-10.741 -3.832 -68.652 
-10.743 -3.564 -68.849 
-9.566 5.564 -67.447 
-9.453 5.708 -67.371 
2.576 -2.758 -66.417 
2.738 -2.600 -66.591 
-10.378 -8.840 -70.776 
-10.205 -8.716 -71.035 
-11.675 8.724 -65.946 
-11.526 8.853 -65.887 
13.614 3.787 -65.419 
13.851 4.015 -65.612 
-3.692 -5.400 -67.424 
-3.519 -5.127 -67.419 
0.525 6.446 -77.445 
0.477 6.555 -77.635 
-8.877 13.206 -64.204 
-8.787 13.394 -64.110 
1.894 -7.155 -68.932 
2.048 -7.013 -69.129 
-2.617 1.361 -64.979 
-2.614 1.576 -64.912 
5.877 8.514 -68.392 
5.933 8.690 -68.479 
8.325 -3.162 -63.477 
8.357 -2.843 -63.449 
8.894 9.511 -73.032 
8.875 9.637 -73.235 
-13.535 -1.272 -66.739 
-13.545 -1.090 -66.793 
2.414 -0.070 -73.383 
2.493 0.209 -73.354 
-0.109 2.073 -69.334 
-0.052 2.326 -69.314 
-4.762 5.472 -61.652 
-4.783 5.617 -61.628 
3.307 -1.169 -65.749 
3.517 -0.994 -65.962 
-4.542 -4.197 -70.981 
-4.504 -3.968 -71.022 
-3.278 -10.544 -67.912 
-3.141 -10.380 -68.081 
-9.526 4.055 -64.707 
-9.547 4.381 -64.897 
-9.484 12.001 -66.294 
-9.459 12.112 -66.260 
11.021 1.502 -69.493 
11.101 1.638 -69.568 
4.886 5.287 -64.749 
4.986 5.430 -64.718 
-8.164 -7.360 -76.431 
-8.065 -7.259 -76.342 
5.873 -2.840 -62.463 
5.943 -2.534 -62.603 
-8.680 10.435 -65.161 
-8.488 10.662 -65.111 
-11.755 -3.527 -65.845 
-11.563 -3.207 -65.929 
2.840 -5.888 -68.238 
2.955 -5.654 -68.479 
-7.316 0.995 -63.665 
-7.294 1.186 -63.806 
-4.189 1.584 -64.345 
-4.220 1.862 -64.275 
1.952 7.038 -69.778 
1.907 7.254 -69.780 
6.399 -10.141 -67.820 
6.541 -9.891 -67.963 
0.736 2.861 -64.130 
0.923 2.992 -64.169 
-0.112 -11.853 -64.898 
-0.002 -11.763 -65.065 
5.061 -2.218 -63.170 
5.200 -1.931 -63.309 
7.168 10.879 -66.639 
7.212 11.027 -66.571 
10.290 -2.318 -65.448 
10.378 -2.212 -65.668 
-12.757 3.480 -71.287 
-12.571 3.620 -71.342 
16.949 6.123 -66.319 
17.180 6.198 -66.263 
-5.911 4.006 -70.670 
-5.794 4.076 -70.630 
3.506 -3.554 -67.691 
3.645 -3.421 -67.905 
-2.770 -6.700 -66.293 
-2.591 -6.496 -66.334 
-6.699 7.325 -64.007 
-6.687 7.725 -63.871 
3.979 -0.353 -66.055 
4.220 -0.113 -66.224 
-5.035 7.476 -61.208 
-5.021 7.740 -61.009 
-2.723 7.484 -68.941 
-2.605 7.637 -68.865 
-15.346 9.864 -72.756 
-15.283 9.837 -72.819 
1.404 -11.738 -64.137 
1.558 -11.624 -64.362 
-3.794 -0.621 -62.934 
-3.693 -0.499 -62.959 
9.542 -4.779 -69.985 
9.758 -4.720 -70.185 
9.597 10.985 -68.055 
9.518 11.114 -68.026 
-3.185 0.228 -65.892 
-3.102 0.520 -65.819 
-8.963 -0.728 -65.856 
-8.914 -0.567 -66.023 
-3.872 -11.302 -66.670 
-3.701 -11.156 -66.875 
-2.985 7.866 -66.170 
-2.888 8.050 -66.231 
-9.882 0.371 -63.533 
-9.851 0.586 -63.628 
14.455 -0.481 -73.474 
14.501 -0.418 -73.611 
3.042 9.157 -64.186 
3.202 9.440 -64.316 
10.206 8.907 -67.794 
10.235 8.876 -67.721 
-7.521 10.173 -76.236 
-7.577 10.240 -76.274 
-9.676 -11.420 -73.412 
-9.597 -11.303 -73.547 
-0.197 2.534 -60.690 
-0.140 2.710 -60.851 
9.010 -4.983 -63.392 
9.003 -4.734 -63.375 
1.825 -12.197 -63.553 
1.898 -12.174 -63.699 
-5.120 -5.301 -62.816 
-5.009 -5.105 -62.922 
10.374 2.641 -63.505 
10.544 2.895 -63.725 
-3.683 -12.012 -66.621 
-3.548 -11.963 -66.802 
0.120 -0.103 -61.462 
0.198 0.082 -61.536 
-7.271 3.212 -62.621 
-7.304 3.361 -62.654 
-10.308 12.614 -65.382 
-10.219 12.695 -65.374 
4.470 -6.347 -64.338 
4.581 -6.196 -64.612 
-4.373 12.916 -64.953 
-4.347 13.138 -65.006 
1.873 1.382 -62.487 
1.958 1.619 -62.621 
2.667 -8.361 -69.464 
2.871 -8.196 -69.666 
-6.732 -10.646 -72.820 
-6.675 -10.493 -72.760 
-14.293 0.631 -73.300 
-14.315 0.796 -73.354 
8.466 -7.191 -67.788 
8.622 -7.054 -67.744 
3.038 -5.543 -68.452 
3.162 -5.292 -68.736 
-7.291 -1.942 -66.112 
-7.181 -1.772 -66.214 
-1.880 1.444 -66.099 
-1.789 1.624 -66.039 
-1.610 8.189 -70.054 
-1.546 8.317 -70.072 
8.635 -0.418 -70.449 
8.781 -0.194 -70.729 
7.877 -7.568 -67.578 
7.965 -7.403 -67.536 
-11.642 -4.692 -74.017 
-11.523 -4.512 -74.137 
-10.853 -0.851 -67.090 
-10.710 -0.711 -67.378 
5.169 -11.178 -72.992 
5.337 -11.060 -73.145 
11.267 -1.809 -73.912 
11.309 -1.757 -74.038 
16.435 8.462 -69.156 
16.536 8.538 -69.220 
-7.473 -9.105 -70.894 
-7.326 -8.776 -70.958 
12.902 7.557 -68.510 
12.940 7.609 -68.521 
-10.767 0.100 -67.265 
-10.692 0.285 -67.310 
-12.287 4.713 -66.221 
-12.303 5.061 -66.277 
-7.823 0.915 -61.694 
-7.779 1.074 -61.766 
-6.650 5.295 -67.333 
-6.480 5.514 -67.115 
-13.306 -8.580 -71.844 
-13.213 -8.367 -71.871 
-4.945 7.242 -65.010 
-4.802 7.501 -64.931 
13.062 -3.528 -66.938 
13.134 -3.395 -66.848 
15.917 -2.831 -68.867 
15.814 -2.779 -68.913 
-2.650 1.081 -68.547 
-2.661 1.266 -68.445 
-7.827 9.507 -67.800 
-7.646 9.722 -67.826 
-4.953 10.899 -67.500 
-4.782 11.145 -67.544 
1.987 -11.402 -64.169 
2.078 -11.220 -64.404 
9.970 -4.402 -65.631 
9.964 -4.254 -65.669 
7.235 7.840 -64.895 
7.401 8.078 -64.953 
-1.276 -4.698 -70.019 
-1.105 -4.494 -70.176 
-4.431 2.467 -62.503 
-4.403 2.574 -62.405 
-12.162 7.163 -69.391 
-12.109 7.348 -69.446 
2.268 -5.522 -67.817 
2.359 -5.299 -68.033 
1.941 5.533 -69.421 
2.145 5.772 -69.271 
7.853 -7.863 -66.872 
7.870 -7.821 -66.869 
-8.804 -0.293 -61.070 
-8.832 -0.054 -61.217 
-1.431 -4.761 -71.813 
-1.294 -4.588 -72.006 
-0.094 2.684 -68.515 
0.018 2.882 -68.455 
-10.347 11.480 -65.888 
-10.218 11.542 -65.915 
-3.517 -2.251 -68.633 
-3.256 -2.049 -68.904 
-15.674 -1.074 -73.387 
-15.833 -0.954 -73.477 
3.523 7.080 -61.227 
3.657 7.388 -61.142 
4.975 2.384 -65.608 
5.215 2.674 -65.626 
-5.705 0.465 -68.214 
-5.588 0.741 -68.193 
-2.364 7.313 -75.593 
-2.334 7.370 -75.651 
-6.272 -8.747 -66.464 
-6.152 -8.673 -66.639 
-9.657 -11.732 -66.566 
-9.649 -11.631 -66.592 
16.435 9.380 -71.333 
16.509 9.316 -71.385 
12.514 -0.448 -64.491 
12.670 -0.217 -64.827 
4.603 -9.184 -66.579 
4.666 -9.126 -66.944 
-13.191 12.649 -68.811 
-13.115 12.655 -68.725 
-15.283 3.338 -72.548 
-14.956 3.187 -72.599 
0.131 -4.231 -74.782 
0.286 -4.052 -74.962 
-10.248 4.263 -72.917 
-10.184 4.443 -73.037 
1.907 -1.409 -61.662 
2.010 -1.266 -61.720 
6.204 -0.147 -65.684 
6.346 0.077 -65.925 
9.861 2.587 -71.589 
9.920 2.848 -71.676 
6.797 8.385 -68.651 
6.772 8.531 -68.797 
15.414 10.348 -65.492 
15.554 10.496 -65.613 
-11.613 -8.110 -63.458 
-11.382 -7.910 -63.749 
6.896 -12.281 -72.702 
7.217 -12.143 -72.665 
11.671 -6.641 -70.190 
[...]
POINT_DATA 990 
SCALARS Umean double 1 
LOOKUP_TABLE default
0.07416 
0.07416 
0.15926 
0.15926 
0.12641 
0.12641 
0.13426 
0.13426 
0.09347 
0.09347 
0.12877 
0.12877 
0.13924 
0.13924 
0.15541 
0.15541 
0.17319 
0.17319 
0.22532 
0.22532 
0.08098 
0.08098 
0.14317 
0.14317 
0.10675 
0.10675 
0.16951 
0.16951 
0.12504 
0.12504 
0.12810 
0.12810 
0.15060 
0.15060 
0.11230 
0.11230 
0.17715 
0.17715 
0.09211 
0.09211 
0.13215 
0.13215 
0.15828 
0.15828 
0.15849 
0.15849 
0.05951 
0.05951 
0.15290 
0.15290 
0.11901 
0.11901 
0.15422 
0.15422 
0.17695 
0.17695 
0.14229 
0.14229 
0.07218 
0.07218 
0.10510 
0.10510 
0.10605 
0.10605 
0.15108 
0.15108 
0.12628 
0.12628 
0.09784 
0.09784 
0.16081 
0.16081 
0.05204 
0.05204 
0.10706 
0.10706 
0.17931 
0.17931 
0.23944 
0.23944 
0.08102 
0.08102 
0.06049 
0.06049 
0.15058 
0.15058 
0.22443 
0.22443 
0.11702 
0.11702 
0.11943 
0.11943 
0.07652 
0.07652 
0.12253 
0.12253 
0.07274 
0.07274 
0.20493 
0.20493 
0.10563 
0.10563 
0.15886 
0.15886 
0.15537 
0.15537 
0.06054 
0.06054 
0.15808 
0.15808 
0.12953 
0.12953 
0.05266 
0.05266 
0.09585 
0.09585 
0.12525 
0.12525 
0.18778 
0.18778 
0.12835 
0.12835 
0.08165 
0.08165 
0.07052 
0.07052 
0.21487 
0.21487 
0.11310 
0.11310 
0.15784 
0.15784 
0.07133 
0.07133 
0.14555 
0.14555 
0.13168 
0.13168 
0.11161 
0.11161 
0.16401 
0.16401 
0.19432 
0.19432 
0.06974 
0.06974 
0.11108 
0.11108 
0.15924 
0.15924 
0.19241 
0.19241 
0.14833 
0.14833 
0.10638 
0.10638 
0.12855 
0.12855 
0.09692 
0.09692 
0.19042 
0.19042 
0.11436 
0.11436 
0.16631 
0.16631 
0.09910 
0.09910 
0.14273 
0.14273 
0.16762 
0.16762 
0.10286 
0.10286 
0.19066 
0.19066 
0.16162 
0.16162 
0.11212 
0.11212 
0.11432 
0.11432 
0.14378 
0.14378 
0.11261 
0.11261 
0.10208 
0.10208 
0.16091 
0.16091 
0.11984 
0.11984 
0.09505 
0.09505 
0.14571 
0.14571 
0.13006 
0.13006 
0.07423 
0.07423 
0.17327 
0.17327 
0.11786 
0.11786 
0.13622 
0.13622 
0.18896 
0.18896 
0.05938 
0.05938 
0.08735 
0.08735 
0.08861 
0.08861 
0.08355 
0.08355 
0.17185 
0.17185 
0.15074 
0.15074 
0.19126 
0.19126 
0.17753 
0.17753 
0.11921 
0.11921 
0.14417 
0.14417 
0.11032 
0.11032 
0.16056 
0.16056 
0.11581 
0.11581 
0.10965 
0.10965 
0.17393 
0.17393 
0.08436 
0.08436 
0.12979 
0.12979 
0.11960 
0.11960 
0.12462 
0.12462 
0.07104 
0.07104 
0.14388 
0.14388 
0.13724 
0.13724 
0.21133 
0.21133 
0.18990 
0.18990 
0.16545 
0.16545 
0.10381 
0.10381 
0.04655 
0.04655 
0.14776 
0.14776 
0.08017 
0.08017 
0.15011 
0.15011 
0.07701 
0.07701 
0.15611 
0.15611 
0.11854 
0.11854 
0.15214 
0.15214 
0.10838 
0.10838 
0.11854 
0.11854 
0.07883 
0.07883 
0.17506 
0.17506 
0.04222 
0.04222 
0.04762 
0.04762 
0.09767 
0.09767 
0.12262 
0.12262 
0.12484 
0.12484 
0.08242 
0.08242 
0.12447 
0.12447 
0.18829 
0.18829 
0.11553 
0.11553 
0.10699 
0.10699 
0.07807 
0.07807 
0.06030 
0.06030 
0.16598 
0.16598 
0.11486 
0.11486 
0.14261 
0.14261 
0.16556 
0.16556 
0.08697 
0.08697 
0.08750 
0.08750 
0.10611 
0.10611 
0.19939 
0.19939 
0.11336 
0.11336 
0.10522 
0.10522 
0.07212 
0.07212 
0.19358 
0.19358 
0.09583 
0.09583 
0.12345 
0.12345 
0.17535 
0.17535 
0.12802 
0.12802 
0.07132 
0.07132 
0.07084 
0.07084 
0.18299 
0.18299 
0.03267 
0.03267 
0.10232 
0.10232 
0.17642 
0.17642 
0.09000 
0.09000 
0.17634 
0.17634 
0.11699 
0.11699 
0.15311 
0.15311 
0.08800 
0.08800 
0.06211 
0.06211 
0.10577 
0.10577 
0.14112 
0.14112 
0.15140 
0.15140 
0.15543 
0.15543 
0.07646 
0.07646 
0.14796 
0.14796 
0.15452 
0.15452 
0.07389 
0.07389 
0.10007 
0.10007 
0.16176 
0.16176 
0.17410 
0.17410 
0.02270 
0.02270 
0.14099 
0.14099 
0.14658 
0.14658 
0.11763 
0.11763 
0.07283 
0.07283 
0.21352 
0.21352 
0.10929 
0.10929 
0.17324 
0.17324 
0.18843 
0.18843 
0.15025 
0.15025 
0.04334 
0.04334 
0.11236 
0.11236 
0.05230 
0.05230 
0.05540 
0.05540 
0.21828 
0.21828 
0.18746 
0.18746 
0.05746 
0.05746 
0.18189 
0.18189 
0.14872 
0.14872 
0.11280 
0.11280 
0.09277 
0.09277 
0.17918 
0.17918 
0.14069 
0.14069 
0.10399 
0.10399 
0.11847 
0.11847 
0.21098 
0.21098 
0.17568 
0.17568 
0.12433 
0.12433 
0.09636 
0.09636 
0.08258 
0.08258 
0.10431 
0.10431 
0.15291 
0.15291 
0.09163 
0.09163 
0.15713 
0.15713 
0.12933 
0.12933 
0.12401 
0.12401 
0.12331 
0.12331 
0.05683 
0.05683 
0.17438 
0.17438 
0.10528 
0.10528 
0.10696 
0.10696 
0.17675 
0.17675 
0.07278 
0.07278 
0.06072 
0.06072 
0.08486 
0.08486 
0.12553 
0.12553 
0.12009 
0.12009 
0.18327 
0.18327 
0.10761 
0.10761 
0.18260 
0.18260 
0.14981 
0.14981 
0.05364 
0.05364 
0.16857 
0.16857 
0.06652 
0.06652 
0.15752 
0.15752 
0.12304 
0.12304 
0.06777 
0.06777 
0.09812 
0.09812 
0.02438 
0.02438 
0.08475 
0.08475 
0.16885 
0.16885 
0.07537 
0.07537 
0.03971 
0.03971 
0.09104 
0.09104 
0.15177 
0.15177 
0.17546 
0.17546 
0.14517 
0.14517 
0.15871 
0.15871 
0.05957 
0.05957 
0.15190 
0.15190 
0.18022 
0.18022 
0.05561 
0.05561 
0.16381 
0.16381 
0.11505 
0.11505 
0.04344 
0.04344 
0.14023 
0.14023 
0.09091 
0.09091 
0.12371 
0.12371 
0.06996 
0.06996 
0.14618 
0.14618 
0.09304 
0.09304 
0.14744 
0.14744 
0.15222 
0.15222 
0.13454 
0.13454 
0.08608 
0.08608 
0.04108 
0.04108 
0.17250 
0.17250 
0.07938 
0.07938 
0.08248 
0.08248 
0.09296 
0.09296 
0.14948 
0.14948 
0.09808 
0.09808 
0.12850 
0.12850 
0.14262 
0.14262 
0.07044 
0.07044 
0.14005 
0.14005 
0.10279 
0.10279 
0.15963 
0.15963 
0.08628 
0.08628 
0.05458 
0.05458 
0.06954 
0.06954 
0.08325 
0.08325 
0.14559 
0.14559 
0.12566 
0.12566 
0.15763 
0.15763 
0.08606 
0.08606 
0.08694 
0.08694 
0.12058 
0.12058 
0.06667 
0.06667 
0.13078 
0.13078 
0.10763 
0.10763 
0.06838 
0.06838 
0.17539 
0.17539 
0.05316 
0.05316 
0.12627 
0.12627 
0.18092 
0.18092 
0.13514 
0.13514 
0.12102 
0.12102 
0.10729 
0.10729 
0.11979 
0.11979 
0.06909 
0.06909 
0.12058 
0.12058 
0.11030 
0.11030 
0.22834 
0.22834 
0.21227 
0.21227 
0.14986 
0.14986 
0.16554 
0.16554 
0.17903 
0.17903 
0.16889 
0.16889 
0.16569 
0.16569 
0.06493 
0.06493 
0.05266 
0.05266 
0.18678 
0.18678 
0.16678 
0.16678 
0.18549 
0.18549 
0.09938 
0.09938 
0.15672 
0.15672 
0.10999 
0.10999 
0.11336 
0.11336 
0.09821 
0.09821 
0.05946 
0.05946 
0.05029 
0.05029 
0.12494 
0.12494 
0.07442 
0.07442 
0.15196 
0.15196 
0.13305 
0.13305 
0.12752 
0.12752 
0.14926 
0.14926 
0.09140 
0.09140 
0.19524 
0.19524 
0.04197 
0.04197 
0.17978 
0.17978 
0.14044 
0.14044 
0.14005 
0.14005 
0.16122 
0.16122 
0.08646 
0.08646 
0.16873 
0.16873 
0.11116 
0.11116 
0.09126 
0.09126 
0.07687 
0.07687 
0.08642 
0.08642 
0.16676 
0.16676 
0.16033 
0.16033 
0.18003 
0.18003 
0.06430 
0.06430 
0.17804 
0.17804 
0.04722 
0.04722 
0.08009 
0.08009 
0.12590 
0.12590 
0.05279 
0.05279 
0.14615 
0.14615 
0.16209 
0.16209 
0.12177 
0.12177 
0.04828 
0.04828 
0.20718 
0.20718 
0.13852 
0.13852 
0.09694 
0.09694 
0.10280 
0.10280 
0.09171 
0.09171 
0.25556 
0.25556 
0.12654 
0.12654 
0.13220 
0.13220 
0.09631 
0.09631 
0.11705 
0.11705 
0.19966 
0.19966 
0.26030 
0.26030 
0.11105 
0.11105 
0.12761 
0.12761 
0.16816 
0.16816 
0.14631 
0.14631 
0.08257 
0.08257 
0.12265 
0.12265 
0.11275 
0.11275 
0.10505 
0.10505 
0.08377 
0.08377 
0.19045 
0.19045 
0.15588 
0.15588 
0.10314 
0.10314 
0.17587 
0.17587 
0.11756 
0.11756 
0.14076 
0.14076 
0.10833 
0.10833 
0.09684 
0.09684 
0.08169 
0.08169 
0.17486 
0.17486 
0.09114 
0.09114 
0.11252 
0.11252 
0.12028 
0.12028 
0.17262 
0.17262 
0.12014 
0.12014 
0.12083 
0.12083 
0.12111 
0.12111 
0.13915 
0.13915 
0.10536 
0.10536 
0.13062 
0.13062 
0.16725 
0.16725 
0.10576 
0.10576 
0.12548 
0.12548 
0.18677 
0.18677 
0.16531 
0.16531 
0.17065 
0.17065 
0.14185 
0.14185 
0.06720 
0.06720 
0.16017 
0.16017 
0.11292 
0.11292 
0.17136 
0.17136 
0.13641 
0.13641 
0.16786 
0.16786 
0.20254 
0.20254 
0.12022 
0.12022 
0.14414 
0.14414 
0.11004 
0.11004 
0.03577 
0.03577 
0.18336 
0.18336 
0.07755 
0.07755 
0.13515 
0.13515 
0.03466 
0.03466 
0.18153 
0.18153 
0.17049 
0.17049 
0.12542 
0.12542 
0.07435 
0.07435 
0.04007 
0.04007 
0.02832 
0.02832 
0.04144 
0.04144 
0.13683 
0.13683 
0.10185 
0.10185 
0.12423 
0.12423 
0.14301 
0.14301 
0.16382 
0.16382 
0.10332 
0.10332 
0.17686 
0.17686 
0.15191 
0.15191 
0.16598 
0.16598 
0.09966 
0.09966 
0.07176 
0.07176 
0.04180 
0.04180 
0.14711 
0.14711 
0.15610 
0.15610 
0.12402 
0.12402 
0.07292 
0.07292 
0.16356 
0.16356 
0.09248 
0.09248 
0.04382 
0.04382 
0.18574 
0.18574 
0.14086 
0.14086 
0.07896 
0.07896 
0.09233 
0.09233 
0.09052 
0.09052 
0.12601 
0.12601 
0.17771 
0.17771 
0.12190 
0.12190 
0.12341 
0.12341 
0.18022 
0.18022 
0.14556 
0.14556 
0.16195 
0.16195 
0.08574 
0.08574 
0.18937 
0.18937 
0.15649 
0.15649 
0.10018 
0.10018 
0.03646 
0.03646 
0.13371 
0.13371 
0.05460 
0.05460 
0.07629 
0.07629 
0.20618 
0.20618 
0.08764 
0.08764 
0.17005 
0.17005 
0.04987 
0.04987 
0.11915 
0.11915 
0.17346 
0.17346 
0.13338 
0.13338 
0.14558 
0.14558 
0.09453 
0.09453 
0.06902 
0.06902 
0.13898 
0.13898 
0.24905 
0.24905 
0.07062 
0.07062 
0.14431 
0.14431 
0.08626 
0.08626 
0.09937 
0.09937 
0.09459 
0.09459 
0.09057 
0.09057 
0.07674 
0.07674 
SCALARS Umean_X double 1 
LOOKUP_TABLE default
0.05900 
0.05900 
0.02000 
0.02000 
0.00350 
0.00350 
0.03700 
0.03700 
-0.01900 
-0.01900 
-0.00750 
-0.00750 
0.01700 
0.01700 
-0.04550 
-0.04550 
0.04850 
0.04850 
0.04500 
0.04500 
0.03250 
0.03250 
0.04500 
0.04500 
0.07450 
0.07450 
0.08950 
0.08950 
0.04600 
0.04600 
-0.03550 
-0.03550 
-0.01300 
-0.01300 
0.03300 
0.03300 
0.07950 
0.07950 
0.08650 
0.08650 
-0.01850 
-0.01850 
0.08300 
0.08300 
-0.02900 
-0.02900 
0.04400 
0.04400 
0.11400 
0.11400 
0.01050 
0.01050 
0.10000 
0.10000 
0.09050 
0.09050 
0.02150 
0.02150 
0.06150 
0.06150 
0.05600 
0.05600 
0.06000 
0.06000 
0.05050 
0.05050 
0.03800 
0.03800 
0.01950 
0.01950 
-0.00150 
-0.00150 
-0.00450 
-0.00450 
0.02250 
0.02250 
0.13900 
0.13900 
0.01850 
0.01850 
-0.00800 
-0.00800 
0.02800 
0.02800 
0.08700 
0.08700 
0.09350 
0.09350 
0.05000 
0.05000 
0.04250 
0.04250 
0.04600 
0.04600 
-0.08000 
-0.08000 
0.04000 
0.04000 
0.06100 
0.06100 
-0.00250 
-0.00250 
0.08900 
0.08900 
-0.02600 
-0.02600 
0.04850 
0.04850 
0.09900 
0.09900 
0.08700 
0.08700 
-0.01800 
-0.01800 
0.07750 
0.07750 
0.07050 
0.07050 
0.01000 
0.01000 
0.05050 
0.05050 
0.07100 
0.07100 
0.01800 
0.01800 
0.06400 
0.06400 
0.04400 
0.04400 
0.09600 
0.09600 
0.03250 
0.03250 
-0.11150 
-0.11150 
0.10750 
0.10750 
0.04200 
0.04200 
-0.06050 
-0.06050 
0.05650 
0.05650 
0.05450 
0.05450 
0.08300 
0.08300 
0.08350 
0.08350 
0.13100 
0.13100 
0.06700 
0.06700 
-0.06750 
-0.06750 
0.00850 
0.00850 
0.02050 
0.02050 
-0.14750 
-0.14750 
0.06550 
0.06550 
-0.00100 
-0.00100 
0.05650 
0.05650 
0.08100 
0.08100 
0.08650 
0.08650 
0.07450 
0.07450 
0.11850 
0.11850 
0.08650 
0.08650 
-0.02400 
-0.02400 
0.04500 
0.04500 
0.07700 
0.07700 
0.00150 
0.00150 
0.02800 
0.02800 
0.01600 
0.01600 
-0.00950 
-0.00950 
-0.00500 
-0.00500 
0.03950 
0.03950 
0.02850 
0.02850 
-0.01050 
-0.01050 
0.10500 
0.10500 
0.01900 
0.01900 
0.06850 
0.06850 
-0.01050 
-0.01050 
0.01250 
0.01250 
0.04000 
0.04000 
0.05000 
0.05000 
0.04950 
0.04950 
0.03500 
0.03500 
0.09600 
0.09600 
0.09600 
0.09600 
0.05750 
0.05750 
0.01100 
0.01100 
-0.01550 
-0.01550 
-0.02250 
-0.02250 
0.07100 
0.07100 
0.09350 
0.09350 
0.05500 
0.05500 
0.06950 
0.06950 
0.02200 
0.02200 
0.04400 
0.04400 
0.09300 
0.09300 
0.11550 
0.11550 
0.05850 
0.05850 
0.06950 
0.06950 
0.08950 
0.08950 
0.00600 
0.00600 
0.12050 
0.12050 
0.00700 
0.00700 
0.05900 
0.05900 
0.03150 
0.03150 
0.07700 
0.07700 
0.05050 
0.05050 
0.10800 
0.10800 
-0.03950 
-0.03950 
0.04150 
0.04150 
0.02450 
0.02450 
0.08550 
0.08550 
0.04850 
0.04850 
0.01550 
0.01550 
0.02300 
0.02300 
0.08000 
0.08000 
0.01450 
0.01450 
-0.02800 
-0.02800 
0.03950 
0.03950 
0.02850 
0.02850 
-0.00350 
-0.00350 
0.03650 
0.03650 
0.05550 
0.05550 
0.08500 
0.08500 
0.06750 
0.06750 
0.03900 
0.03900 
-0.01650 
-0.01650 
0.04450 
0.04450 
0.05550 
0.05550 
0.01300 
0.01300 
0.04250 
0.04250 
0.10200 
0.10200 
0.02850 
0.02850 
-0.01100 
-0.01100 
0.07800 
0.07800 
0.06200 
0.06200 
0.05500 
0.05500 
0.04550 
0.04550 
0.03200 
0.03200 
0.07300 
0.07300 
0.04400 
0.04400 
0.05950 
0.05950 
0.07150 
0.07150 
0.08400 
0.08400 
0.02100 
0.02100 
0.05050 
0.05050 
0.07350 
0.07350 
0.01900 
0.01900 
0.03750 
0.03750 
-0.00800 
-0.00800 
0.02200 
0.02200 
0.08500 
0.08500 
0.04650 
0.04650 
0.07150 
0.07150 
0.03600 
0.03600 
-0.05150 
-0.05150 
-0.00550 
-0.00550 
0.09050 
0.09050 
0.08550 
0.08550 
0.04550 
0.04550 
-0.00300 
-0.00300 
0.08300 
0.08300 
0.08550 
0.08550 
0.01400 
0.01400 
0.02650 
0.02650 
0.04550 
0.04550 
0.10200 
0.10200 
0.00850 
0.00850 
-0.01400 
-0.01400 
0.06850 
0.06850 
0.05600 
0.05600 
0.06450 
0.06450 
0.13050 
0.13050 
-0.07950 
-0.07950 
0.06700 
0.06700 
0.12000 
0.12000 
0.05850 
0.05850 
0.01500 
0.01500 
0.06000 
0.06000 
0.00400 
0.00400 
0.03700 
0.03700 
0.07800 
0.07800 
0.03150 
0.03150 
0.03800 
0.03800 
0.16350 
0.16350 
0.07750 
0.07750 
0.03200 
0.03200 
0.05150 
0.05150 
0.07100 
0.07100 
0.02950 
0.02950 
-0.01250 
-0.01250 
0.07000 
0.07000 
0.11550 
0.11550 
0.16050 
0.16050 
0.11400 
0.11400 
0.01700 
0.01700 
-0.00400 
-0.00400 
-0.08400 
-0.08400 
0.12600 
0.12600 
-0.01400 
-0.01400 
0.02800 
0.02800 
0.08200 
0.08200 
-0.06500 
-0.06500 
0.03950 
0.03950 
0.00350 
0.00350 
0.07550 
0.07550 
0.06000 
0.06000 
0.01750 
0.01750 
0.02050 
0.02050 
0.03250 
0.03250 
-0.00900 
-0.00900 
0.03650 
0.03650 
0.10600 
0.10600 
0.07650 
0.07650 
0.11050 
0.11050 
-0.02050 
-0.02050 
0.11150 
0.11150 
0.07800 
0.07800 
-0.02100 
-0.02100 
0.10500 
0.10500 
0.04300 
0.04300 
0.12300 
0.12300 
0.06200 
0.06200 
0.06200 
0.06200 
0.07700 
0.07700 
0.01050 
0.01050 
0.05700 
0.05700 
0.13800 
0.13800 
0.06650 
0.06650 
0.02050 
0.02050 
-0.03200 
-0.03200 
0.10350 
0.10350 
0.07150 
0.07150 
0.02350 
0.02350 
0.03500 
0.03500 
0.00350 
0.00350 
0.08100 
0.08100 
0.07050 
0.07050 
-0.00350 
-0.00350 
0.09350 
0.09350 
0.08250 
0.08250 
-0.00150 
-0.00150 
0.06850 
0.06850 
0.00800 
0.00800 
0.07800 
0.07800 
0.01400 
0.01400 
0.07800 
0.07800 
-0.00050 
-0.00050 
0.11900 
0.11900 
0.07700 
0.07700 
0.05600 
0.05600 
0.03450 
0.03450 
0.02100 
0.02100 
0.06800 
0.06800 
-0.01250 
-0.01250 
0.04400 
0.04400 
0.08150 
0.08150 
0.11800 
0.11800 
0.00800 
0.00800 
0.07650 
0.07650 
0.06250 
0.06250 
0.06050 
0.06050 
-0.01400 
-0.01400 
-0.01600 
-0.01600 
0.03900 
0.03900 
-0.03350 
-0.03350 
0.01750 
0.01750 
0.06450 
0.06450 
0.02000 
0.02000 
0.06600 
0.06600 
-0.00600 
-0.00600 
0.07550 
0.07550 
0.02900 
0.02900 
0.03250 
0.03250 
0.05750 
0.05750 
0.02800 
0.02800 
0.05400 
0.05400 
0.02800 
0.02800 
0.00100 
0.00100 
0.03350 
0.03350 
0.04600 
0.04600 
-0.01950 
-0.01950 
-0.02150 
-0.02150 
-0.02550 
-0.02550 
0.01050 
0.01050 
0.00650 
0.00650 
0.01350 
0.01350 
0.05700 
0.05700 
-0.10350 
-0.10350 
-0.00900 
-0.00900 
0.11250 
0.11250 
0.07950 
0.07950 
0.08450 
0.08450 
0.02050 
0.02050 
0.07900 
0.07900 
0.01750 
0.01750 
0.03950 
0.03950 
-0.03850 
-0.03850 
0.03950 
0.03950 
0.01950 
0.01950 
0.04350 
0.04350 
0.06700 
0.06700 
0.01400 
0.01400 
0.08100 
0.08100 
0.05300 
0.05300 
0.01700 
0.01700 
0.01150 
0.01150 
0.02300 
0.02300 
-0.02500 
-0.02500 
0.00250 
0.00250 
0.03750 
0.03750 
0.14100 
0.14100 
0.05000 
0.05000 
0.06500 
0.06500 
0.08450 
0.08450 
0.02100 
0.02100 
0.00850 
0.00850 
0.01450 
0.01450 
0.13550 
0.13550 
-0.01350 
-0.01350 
-0.00650 
-0.00650 
0.07250 
0.07250 
-0.00700 
-0.00700 
0.09400 
0.09400 
-0.06350 
-0.06350 
0.00150 
0.00150 
0.06100 
0.06100 
0.05250 
0.05250 
0.12400 
0.12400 
0.05800 
0.05800 
0.07500 
0.07500 
0.05300 
0.05300 
0.11100 
0.11100 
0.04550 
0.04550 
0.03000 
0.03000 
0.07500 
0.07500 
0.00050 
0.00050 
0.12350 
0.12350 
-0.00350 
-0.00350 
0.03750 
0.03750 
0.01850 
0.01850 
0.16200 
0.16200 
-0.00650 
-0.00650 
0.08350 
0.08350 
0.04100 
0.04100 
-0.02850 
-0.02850 
-0.02000 
-0.02000 
0.02250 
0.02250 
0.04400 
0.04400 
0.02950 
0.02950 
0.04400 
0.04400 
0.09400 
0.09400 
0.04800 
0.04800 
0.11100 
0.11100 
0.02200 
0.02200 
0.06250 
0.06250 
0.06650 
0.06650 
0.02600 
0.02600 
-0.03400 
-0.03400 
-0.03050 
-0.03050 
0.06100 
0.06100 
0.01400 
0.01400 
0.11300 
0.11300 
0.07750 
0.07750 
0.07600 
0.07600 
0.09150 
0.09150 
0.09050 
0.09050 
-0.04650 
-0.04650 
0.03050 
0.03050 
0.01950 
0.01950 
0.01250 
0.01250 
0.05100 
0.05100 
0.04250 
0.04250 
0.06400 
0.06400 
0.06850 
0.06850 
0.05550 
0.05550 
-0.01100 
-0.01100 
0.11150 
0.11150 
0.10900 
0.10900 
0.13250 
0.13250 
0.05450 
0.05450 
-0.01600 
-0.01600 
0.09150 
0.09150 
0.05000 
0.05000 
0.09900 
0.09900 
0.06950 
0.06950 
0.10250 
0.10250 
0.06400 
0.06400 
0.03050 
0.03050 
0.00850 
0.00850 
0.01200 
0.01200 
0.00700 
0.00700 
0.12350 
0.12350 
-0.00500 
-0.00500 
0.08400 
0.08400 
0.11100 
0.11100 
0.11100 
0.11100 
0.06900 
0.06900 
0.01200 
0.01200 
0.03100 
0.03100 
0.08750 
0.08750 
-0.02500 
-0.02500 
0.00800 
0.00800 
0.00050 
0.00050 
0.01150 
0.01150 
0.08250 
0.08250 
0.09500 
0.09500 
0.05000 
0.05000 
0.01800 
0.01800 
-0.02300 
-0.02300 
0.02900 
0.02900 
-0.01050 
-0.01050 
-0.05750 
-0.05750 
0.07500 
0.07500 
0.06850 
0.06850 
0.12850 
0.12850 
0.02250 
0.02250 
0.05600 
0.05600 
0.04950 
0.04950 
0.08800 
0.08800 
0.01750 
0.01750 
-0.00300 
-0.00300 
-0.02400 
-0.02400 
0.06800 
0.06800 
0.07750 
0.07750 
0.09300 
0.09300 
0.06500 
0.06500 
0.10250 
0.10250 
0.01850 
0.01850 
0.02050 
0.02050 
0.11300 
0.11300 
0.02250 
0.02250 
0.00200 
0.00200 
0.07200 
0.07200 
0.03100 
0.03100 
-0.02700 
-0.02700 
0.05200 
0.05200 
0.09850 
0.09850 
0.00100 
0.00100 
0.07300 
0.07300 
-0.07600 
-0.07600 
-0.01000 
-0.01000 
0.03850 
0.03850 
0.04150 
0.04150 
-0.00650 
-0.00650 
0.03450 
0.03450 
0.01250 
0.01250 
0.03900 
0.03900 
0.02750 
0.02750 
0.06050 
0.06050 
0.02650 
0.02650 
0.04150 
0.04150 
0.05150 
0.05150 
0.01700 
0.01700 
0.02700 
0.02700 
0.11100 
0.11100 
0.09700 
0.09700 
0.09100 
0.09100 
0.06550 
0.06550 
0.03500 
0.03500 
0.06000 
0.06000 
0.08800 
0.08800 
0.04850 
0.04850 
0.05100 
0.05100 
0.05150 
0.05150 
0.02550 
0.02550 
0.06650 
0.06650 
-0.03600 
-0.03600 
0.02700 
0.02700 
SCALARS Umean_Y double 1 
LOOKUP_TABLE default
0.04300 
0.04300 
0.15100 
0.15100 
0.11900 
0.11900 
0.12850 
0.12850 
0.07200 
0.07200 
0.12600 
0.12600 
0.12700 
0.12700 
0.13550 
0.13550 
0.16150 
0.16150 
0.16200 
0.16200 
0.07400 
0.07400 
0.09150 
0.09150 
0.04800 
0.04800 
0.12100 
0.12100 
0.11600 
0.11600 
0.12250 
0.12250 
0.06650 
0.06650 
0.09000 
0.09000 
0.15750 
0.15750 
0.00850 
0.00850 
0.12050 
0.12050 
0.13450 
0.13450 
0.12350 
0.12350 
0.03500 
0.03500 
0.10150 
0.10150 
0.11400 
0.11400 
0.08450 
0.08450 
0.12400 
0.12400 
0.12650 
0.12650 
0.01650 
0.01650 
0.05550 
0.05550 
0.05850 
0.05850 
0.13750 
0.13750 
0.11150 
0.11150 
0.09550 
0.09550 
0.15900 
0.15900 
0.05150 
0.05150 
-0.03250 
-0.03250 
0.10950 
0.10950 
0.17300 
0.17300 
0.08000 
0.08000 
0.05350 
0.05350 
0.12250 
0.12250 
0.11650 
0.11650 
0.08500 
0.08500 
0.10300 
0.10300 
0.05300 
0.05300 
0.00750 
0.00750 
0.05900 
0.05900 
0.11400 
0.11400 
0.10550 
0.10550 
0.12900 
0.12900 
0.15200 
0.15200 
0.03200 
0.03200 
0.07850 
0.07850 
0.08700 
0.08700 
0.02450 
0.02450 
0.04300 
0.04300 
0.08400 
0.08400 
0.12750 
0.12750 
0.11800 
0.11800 
0.03850 
0.03850 
0.06800 
0.06800 
0.18950 
0.18950 
0.10350 
0.10350 
0.12000 
0.12000 
0.06350 
0.06350 
-0.04850 
-0.04850 
0.05550 
0.05550 
0.08200 
0.08200 
0.14550 
0.14550 
0.17850 
0.17850 
0.04350 
0.04350 
0.03100 
0.03100 
0.13100 
0.13100 
0.14050 
0.14050 
0.13200 
0.13200 
0.08200 
0.08200 
0.12700 
0.12700 
0.09300 
0.09300 
0.11850 
0.11850 
0.07800 
0.07800 
0.13400 
0.13400 
0.07200 
0.07200 
0.07900 
0.07900 
0.06200 
0.06200 
0.06450 
0.06450 
0.11400 
0.11400 
0.13650 
0.13650 
0.05450 
0.05450 
0.09400 
0.09400 
0.07100 
0.07100 
0.10750 
0.10750 
0.08800 
0.08800 
0.15950 
0.15950 
0.06300 
0.06300 
0.09100 
0.09100 
0.13950 
0.13950 
0.12650 
0.12650 
0.07250 
0.07250 
0.08750 
0.08750 
0.11450 
0.11450 
0.08200 