# vtk DataFile Version 2.1 
Trajects from timestep 9 with color option 
ASCII 
 
DATASET POLYDATA POINTS 1064 float 
6.309 4.172 -70.123 
6.206 4.162 -70.237 
2.214 6.563 -70.627 
2.182 6.532 -70.713 
-2.201 4.481 -69.712 
-2.303 4.589 -69.818 
-9.526 3.722 -71.368 
-9.483 3.780 -71.351 
5.140 9.749 -72.065 
5.161 9.732 -72.244 
-5.946 3.860 -70.327 
-5.902 3.952 -70.512 
-14.765 -3.723 -74.708 
-14.932 -3.687 -74.717 
-11.491 -5.479 -70.075 
-11.494 -5.386 -70.053 
-1.643 6.224 -69.462 
-1.734 6.336 -69.618 
3.199 -5.376 -73.082 
3.181 -5.416 -73.330 
7.330 4.703 -68.847 
7.164 4.733 -68.891 
-0.940 -2.916 -72.264 
-0.981 -2.930 -72.453 
-2.545 -3.710 -75.571 
-2.605 -3.710 -75.611 
1.015 -4.608 -70.362 
1.065 -4.544 -70.373 
6.215 -10.674 -73.941 
6.179 -10.627 -74.008 
6.588 11.805 -71.303 
6.516 11.863 -71.548 
-2.342 -5.249 -70.237 
-2.324 -5.026 -70.327 
-9.691 1.575 -71.477 
-9.637 1.567 -71.557 
4.448 10.930 -70.751 
4.431 10.902 -70.910 
-7.274 5.449 -71.308 
-7.240 5.451 -71.379 
-7.522 -1.234 -70.358 
-7.500 -1.306 -70.438 
-0.623 -8.100 -74.288 
-0.677 -8.077 -74.236 
-6.547 -4.640 -70.604 
-6.469 -4.471 -70.632 
-8.967 7.594 -71.766 
-8.990 7.689 -71.819 
-3.034 4.294 -69.414 
-3.133 4.368 -69.535 
-4.484 10.017 -68.487 
-4.426 10.259 -68.650 
-0.936 10.178 -66.735 
-0.938 10.215 -66.878 
-14.801 -10.228 -71.589 
-14.829 -10.163 -71.402 
4.261 3.955 -67.207 
4.200 4.063 -67.288 
-12.381 6.159 -70.971 
-12.464 6.091 -70.805 
6.575 2.665 -74.167 
6.528 2.695 -74.313 
7.300 9.722 -69.489 
7.120 9.777 -69.676 
-3.297 8.337 -69.371 
-3.337 8.449 -69.548 
10.633 2.984 -71.987 
10.499 3.009 -72.131 
4.093 9.100 -70.123 
3.992 9.102 -70.195 
-4.851 12.219 -68.907 
-4.828 12.236 -69.012 
-1.334 -1.167 -67.215 
-1.311 -0.973 -67.313 
-8.418 -5.775 -70.026 
-8.378 -5.681 -70.030 
-1.774 8.802 -69.312 
-1.805 8.835 -69.517 
-2.234 11.315 -69.411 
-2.033 11.472 -69.684 
-3.576 -10.017 -71.424 
-3.634 -9.858 -71.466 
11.724 -3.829 -69.735 
11.678 -3.767 -69.643 
-0.821 3.685 -60.819 
-0.842 3.860 -60.796 
1.947 11.908 -67.899 
2.006 11.935 -67.988 
10.780 7.459 -72.822 
10.630 7.587 -72.984 
-4.372 -8.850 -71.978 
-4.389 -8.763 -71.952 
-3.959 1.632 -67.341 
-3.955 1.853 -67.411 
0.597 5.367 -67.945 
0.470 5.422 -68.040 
-9.595 7.480 -72.201 
-9.601 7.544 -72.244 
-7.074 12.588 -66.586 
-7.132 12.748 -66.620 
-12.299 6.374 -72.631 
-12.425 6.335 -72.569 
13.575 5.302 -67.186 
13.404 5.490 -67.251 
1.603 -2.765 -75.171 
1.615 -2.753 -75.338 
7.383 5.557 -68.177 
7.127 5.575 -68.175 
-10.409 6.748 -70.980 
-10.452 6.804 -70.987 
12.691 7.022 -70.304 
12.543 7.161 -70.410 
-3.263 -2.828 -66.027 
-3.185 -2.564 -66.072 
-3.921 9.912 -64.840 
-3.829 10.089 -64.968 
-5.846 12.618 -67.294 
-5.846 12.832 -67.374 
0.030 9.683 -74.441 
0.154 9.761 -74.552 
-8.160 -3.522 -65.464 
-8.148 -3.324 -65.479 
4.134 -12.653 -70.100 
4.066 -12.820 -70.055 
7.844 9.783 -65.274 
7.927 9.906 -65.453 
4.696 1.351 -65.529 
4.705 1.475 -65.554 
-10.828 -7.697 -71.555 
-10.816 -7.700 -71.338 
5.440 1.057 -66.891 
5.426 1.110 -67.005 
1.502 11.420 -68.023 
1.550 11.449 -68.085 
10.809 4.214 -65.439 
10.750 4.441 -65.405 
-0.916 -0.643 -63.653 
-0.954 -0.515 -63.798 
-12.552 1.943 -69.524 
-12.578 1.926 -69.521 
6.776 -6.803 -69.152 
6.806 -6.831 -69.157 
-9.624 3.556 -68.988 
-9.662 3.491 -69.090 
4.924 -2.566 -69.699 
4.953 -2.563 -69.875 
5.056 -3.905 -70.723 
5.111 -3.906 -70.865 
-11.558 0.272 -66.217 
-11.626 0.404 -66.290 
-4.070 -0.511 -67.689 
-4.020 -0.206 -67.892 
-5.387 10.791 -74.645 
-5.396 10.777 -74.788 
4.691 -2.008 -72.935 
4.772 -1.983 -73.092 
2.080 13.001 -65.529 
2.199 13.058 -65.601 
6.196 7.753 -66.111 
6.017 7.754 -66.088 
4.406 6.861 -75.640 
4.400 6.903 -75.797 
-10.765 -2.120 -71.482 
-10.877 -2.087 -71.531 
4.772 -0.511 -65.524 
4.723 -0.431 -65.584 
-7.658 11.954 -70.287 
-7.687 11.905 -70.455 
-4.703 3.888 -74.299 
-4.637 3.954 -74.500 
7.595 -11.479 -69.100 
7.595 -11.385 -69.076 
-10.020 -11.582 -70.362 
-9.906 -11.449 -70.132 
-7.874 -3.367 -75.372 
-7.964 -3.316 -75.472 
2.420 1.562 -67.125 
2.438 1.693 -67.272 
-1.516 7.328 -61.709 
-1.554 7.571 -61.729 
-6.670 -6.486 -67.659 
-6.593 -6.248 -67.833 
12.390 5.349 -72.127 
12.166 5.367 -72.243 
4.300 1.786 -70.664 
4.182 1.761 -70.814 
-9.830 -1.466 -64.452 
-9.793 -1.162 -64.411 
6.201 -1.774 -65.911 
6.239 -1.648 -65.996 
0.914 -6.899 -66.995 
1.166 -6.650 -66.982 
-12.481 -7.192 -69.817 
-12.477 -7.061 -69.653 
-12.055 -2.712 -67.853 
-12.182 -2.583 -67.805 
9.213 -8.053 -67.919 
9.292 -7.850 -67.894 
-7.161 -3.827 -69.827 
-7.130 -3.736 -69.785 
7.112 0.064 -66.394 
7.081 0.079 -66.436 
-11.518 -8.620 -71.362 
-11.490 -8.645 -71.041 
2.518 4.878 -69.048 
2.415 4.888 -69.212 
4.612 10.122 -66.543 
4.703 10.252 -66.533 
-7.446 0.697 -64.447 
-7.378 1.002 -64.505 
5.548 12.008 -66.440 
5.689 12.156 -66.486 
-2.180 4.054 -67.989 
-2.171 4.267 -68.111 
1.906 -4.233 -71.872 
1.909 -4.248 -71.983 
-7.746 -6.926 -70.971 
-7.715 -6.769 -70.940 
-11.971 -4.868 -75.413 
-12.045 -4.918 -75.460 
0.445 9.803 -63.597 
0.613 10.048 -63.709 
-11.237 4.462 -67.696 
-11.270 4.391 -67.745 
-6.932 3.436 -60.928 
-6.919 3.526 -60.954 
-3.708 -12.163 -67.605 
-3.651 -12.040 -67.718 
13.267 0.462 -67.706 
13.172 0.464 -67.884 
12.975 -2.694 -68.017 
12.964 -2.660 -68.110 
3.305 1.476 -70.606 
3.144 1.526 -70.787 
0.989 -5.901 -75.992 
0.976 -5.942 -76.044 
10.772 8.060 -68.394 
10.562 8.205 -68.600 
-4.339 0.330 -64.869 
-4.429 0.545 -64.939 
-10.471 3.400 -66.506 
-10.506 3.375 -66.573 
-0.577 2.368 -66.255 
-0.613 2.467 -66.379 
8.813 12.522 -67.772 
8.800 12.590 -67.910 
0.131 -0.413 -66.830 
0.132 -0.253 -66.925 
10.885 -5.147 -66.472 
10.996 -4.942 -66.549 
-8.591 -11.431 -69.659 
-8.529 -11.350 -69.546 
0.955 6.371 -74.610 
0.997 6.407 -74.665 
9.951 -10.768 -67.754 
10.010 -10.567 -67.755 
4.882 3.187 -68.650 
4.796 3.220 -68.737 
5.033 -11.309 -68.054 
5.057 -11.287 -68.093 
0.338 -5.895 -75.867 
0.363 -5.886 -75.941 
0.992 3.853 -67.516 
0.932 3.926 -67.647 
-9.816 -3.756 -68.321 
-9.822 -3.571 -68.256 
12.801 3.241 -68.683 
12.592 3.237 -68.678 
-5.024 -8.524 -71.045 
-5.070 -8.344 -71.030 
4.094 5.374 -65.050 
3.996 5.476 -65.106 
-11.247 3.022 -62.255 
-11.262 3.227 -62.303 
11.031 9.397 -66.556 
10.883 9.406 -66.687 
14.774 4.176 -68.200 
14.691 4.187 -68.175 
-3.532 -6.479 -74.111 
-3.571 -6.387 -74.139 
-11.050 10.433 -70.640 
-11.039 10.372 -70.663 
13.583 -10.851 -65.902 
13.688 -10.579 -65.933 
-0.137 1.571 -72.283 
-0.234 1.603 -72.390 
-10.082 4.306 -66.440 
-10.143 4.357 -66.504 
-5.835 5.372 -65.157 
-5.848 5.620 -65.210 
-9.283 10.135 -63.445 
-9.330 10.340 -63.311 
-6.062 11.173 -75.053 
-6.052 11.127 -75.277 
4.090 -12.311 -65.982 
4.251 -12.303 -66.048 
-13.328 2.274 -77.827 
-13.312 2.421 -77.717 
-9.770 -5.773 -69.134 
-9.693 -5.536 -69.087 
9.207 -0.911 -65.381 
9.209 -0.777 -65.372 
12.312 8.132 -71.280 
12.131 8.262 -71.366 
13.717 -1.221 -67.614 
13.687 -1.144 -67.730 
-6.330 10.604 -70.158 
-6.360 10.756 -70.231 
14.026 12.176 -72.095 
13.799 12.250 -72.170 
-5.671 9.669 -61.872 
-5.600 10.056 -62.058 
-2.122 9.595 -67.084 
-2.075 9.658 -67.266 
3.651 -9.387 -64.911 
3.835 -9.263 -64.833 
-0.199 7.956 -74.297 
0.017 7.983 -74.404 
2.167 6.122 -63.250 
2.037 6.288 -63.109 
3.110 -9.812 -64.690 
3.320 -9.697 -64.559 
-14.522 4.731 -75.150 
-14.535 4.631 -75.148 
-10.982 0.437 -62.583 
-10.972 0.660 -62.687 
-9.719 -7.461 -73.557 
-9.655 -7.473 -73.399 
1.705 2.117 -57.562 
1.719 2.290 -57.582 
9.302 -4.739 -73.810 
9.373 -4.854 -73.885 
8.552 2.079 -70.459 
8.425 2.131 -70.546 
5.716 8.844 -62.838 
5.719 9.067 -62.871 
-0.800 -10.184 -67.958 
-0.654 -9.959 -67.914 
1.915 -12.024 -64.015 
2.064 -11.937 -63.993 
-2.199 4.654 -60.560 
-2.193 4.911 -60.478 
-12.282 5.834 -63.686 
-12.240 5.796 -63.677 
1.283 -0.784 -65.690 
1.340 -0.644 -65.815 
10.415 -7.142 -69.516 
10.423 -7.133 -69.505 
1.316 0.130 -66.278 
1.347 0.209 -66.386 
-15.987 -3.131 -72.931 
-16.061 -3.070 -72.815 
8.693 6.561 -73.538 
8.653 6.527 -73.825 
17.034 -1.452 -69.508 
16.942 -1.271 -69.586 
-8.371 4.087 -74.083 
-8.266 4.096 -73.894 
-9.934 4.886 -67.411 
-9.937 4.819 -67.460 
8.153 -1.384 -71.889 
8.151 -1.414 -72.024 
-0.954 -0.474 -71.985 
-1.021 -0.502 -72.124 
-9.239 -12.082 -71.009 
-9.110 -12.076 -70.685 
5.242 -4.660 -66.974 
5.322 -4.556 -67.075 
6.676 -5.473 -68.941 
6.673 -5.501 -68.949 
-9.120 1.449 -65.390 
-9.036 1.623 -65.437 
7.815 1.088 -64.959 
7.785 1.052 -65.189 
-5.967 7.876 -76.749 
-6.000 7.904 -76.726 
-5.054 -3.527 -68.128 
-4.947 -3.278 -68.116 
-14.682 -2.993 -71.593 
-14.845 -2.962 -71.736 
12.211 -7.288 -69.407 
12.248 -7.136 -69.468 
5.864 -6.091 -70.619 
5.843 -6.032 -70.620 
-2.233 4.571 -75.345 
-2.243 4.769 -75.677 
15.980 4.551 -72.894 
15.957 4.801 -72.994 
8.703 9.093 -65.657 
8.592 9.110 -65.792 
-8.204 6.753 -66.133 
-8.109 6.973 -66.161 
5.061 -6.765 -65.416 
5.164 -6.600 -65.469 
-3.270 -1.257 -61.015 
-3.346 -1.051 -60.970 
-7.273 -3.067 -72.049 
-7.364 -3.049 -72.061 
7.411 -5.510 -66.487 
7.478 -5.414 -66.484 
-0.099 -5.201 -68.473 
0.089 -5.029 -68.630 
-1.166 -11.475 -66.242 
-0.779 -11.279 -66.093 
3.430 1.654 -62.443 
3.424 1.800 -62.676 
8.118 -10.990 -68.513 
8.204 -10.778 -68.610 
12.290 10.892 -74.736 
12.241 10.904 -74.967 
-8.938 -3.762 -65.618 
-8.941 -3.568 -65.542 
10.249 -12.516 -71.024 
10.259 -12.299 -71.128 
6.887 -4.177 -67.383 
6.939 -4.012 -67.442 
0.407 -4.565 -64.704 
0.464 -4.325 -64.786 
12.498 -0.286 -74.464 
12.477 -0.256 -74.458 
16.589 10.729 -69.906 
16.410 10.852 -69.938 
-4.210 10.489 -76.201 
-4.190 10.505 -76.325 
-8.131 8.243 -73.249 
-8.026 8.282 -73.302 
8.110 2.122 -69.994 
7.972 2.158 -70.161 
0.317 8.324 -65.916 
0.155 8.442 -65.854 
-6.863 -7.217 -73.180 
-6.937 -7.109 -73.076 
16.619 7.111 -68.154 
16.601 7.156 -68.280 
-6.040 -11.695 -74.690 
-5.881 -11.772 -74.691 
6.422 0.941 -62.663 
6.424 1.056 -62.613 
10.723 -4.751 -68.912 
10.770 -4.713 -68.930 
-12.069 7.379 -69.216 
[...]
POINT_DATA 1064 
SCALARS Umean double 1 
LOOKUP_TABLE default
0.07698 
0.07698 
0.04843 
0.04843 
0.09125 
0.09125 
0.03709 
0.03709 
0.09051 
0.09051 
0.10562 
0.10562 
0.08554 
0.08554 
0.04781 
0.04781 
0.10626 
0.10626 
0.12592 
0.12592 
0.08717 
0.08717 
0.09695 
0.09695 
0.03606 
0.03606 
0.04098 
0.04098 
0.04470 
0.04470 
0.13093 
0.13093 
0.12057 
0.12057 
0.04843 
0.04843 
0.08117 
0.08117 
0.03937 
0.03937 
0.05493 
0.05493 
0.03921 
0.03921 
0.09411 
0.09411 
0.05559 
0.05559 
0.08648 
0.08648 
0.14874 
0.14874 
0.07386 
0.07386 
0.09997 
0.09997 
0.07407 
0.07407 
0.09883 
0.09883 
0.07814 
0.07814 
0.13266 
0.13266 
0.10662 
0.10662 
0.09914 
0.09914 
0.06203 
0.06203 
0.05441 
0.05441 
0.10928 
0.10928 
0.05112 
0.05112 
0.10497 
0.10497 
0.18680 
0.18680 
0.08719 
0.08719 
0.06005 
0.06005 
0.08887 
0.08887 
0.05507 
0.05507 
0.12760 
0.12760 
0.04619 
0.04619 
0.11593 
0.11593 
0.08393 
0.08393 
0.03867 
0.03867 
0.08678 
0.08678 
0.07287 
0.07287 
0.13116 
0.13116 
0.08393 
0.08393 
0.12832 
0.12832 
0.03548 
0.03548 
0.11452 
0.11452 
0.13947 
0.13947 
0.11851 
0.11851 
0.11423 
0.11423 
0.09190 
0.09190 
0.09946 
0.09946 
0.09292 
0.09292 
0.11625 
0.11625 
0.06341 
0.06341 
0.10868 
0.10868 
0.06325 
0.06325 
0.04180 
0.04180 
0.11850 
0.11850 
0.09856 
0.09856 
0.01560 
0.01560 
0.02067 
0.02067 
0.06339 
0.06339 
0.08920 
0.08920 
0.07614 
0.07614 
0.08273 
0.08273 
0.18489 
0.18489 
0.07198 
0.07198 
0.08921 
0.08921 
0.07516 
0.07516 
0.09024 
0.09024 
0.08132 
0.08132 
0.06331 
0.06331 
0.05568 
0.05568 
0.08869 
0.08869 
0.11081 
0.11081 
0.04851 
0.04851 
0.14456 
0.14456 
0.07194 
0.07194 
0.09886 
0.09886 
0.12338 
0.12338 
0.15236 
0.15236 
0.12645 
0.12645 
0.09624 
0.09624 
0.15449 
0.15449 
0.07833 
0.07833 
0.17725 
0.17725 
0.10497 
0.10497 
0.09364 
0.09364 
0.10963 
0.10963 
0.05245 
0.05245 
0.02716 
0.02716 
0.16159 
0.16159 
0.09696 
0.09696 
0.07950 
0.07950 
0.15891 
0.15891 
0.10476 
0.10476 
0.12281 
0.12281 
0.05602 
0.05602 
0.08150 
0.08150 
0.05046 
0.05046 
0.15874 
0.15874 
0.04618 
0.04618 
0.04729 
0.04729 
0.08824 
0.08824 
0.10089 
0.10089 
0.04981 
0.04981 
0.12367 
0.12367 
0.03374 
0.03374 
0.16398 
0.16398 
0.12168 
0.12168 
0.03981 
0.03981 
0.08135 
0.08135 
0.07720 
0.07720 
0.09304 
0.09304 
0.12275 
0.12275 
0.07612 
0.07612 
0.03900 
0.03900 
0.10474 
0.10474 
0.06335 
0.06335 
0.02540 
0.02540 
0.03931 
0.03931 
0.08076 
0.08076 
0.09809 
0.09809 
0.10455 
0.10455 
0.09319 
0.09319 
0.07607 
0.07607 
0.10554 
0.10554 
0.09893 
0.09893 
0.04369 
0.04369 
0.05189 
0.05189 
0.03306 
0.03306 
0.14660 
0.14660 
0.07396 
0.07396 
0.05103 
0.05103 
0.12697 
0.12697 
0.12469 
0.12469 
0.11445 
0.11445 
0.08709 
0.08709 
0.09215 
0.09215 
0.12679 
0.12679 
0.06716 
0.06716 
0.11943 
0.11943 
0.07121 
0.07121 
0.08563 
0.08563 
0.12513 
0.12513 
0.21760 
0.21760 
0.09912 
0.09912 
0.11760 
0.11760 
0.12128 
0.12128 
0.12682 
0.12682 
0.13646 
0.13646 
0.05043 
0.05043 
0.12313 
0.12313 
0.08545 
0.08545 
0.08736 
0.08736 
0.07728 
0.07728 
0.08124 
0.08124 
0.11272 
0.11272 
0.13590 
0.13590 
0.08697 
0.08697 
0.13492 
0.13492 
0.02867 
0.02867 
0.09807 
0.09807 
0.00815 
0.00815 
0.06868 
0.06868 
0.07525 
0.07525 
0.14588 
0.14588 
0.10875 
0.10875 
0.10820 
0.10820 
0.04153 
0.04153 
0.06915 
0.06915 
0.07841 
0.07841 
0.17439 
0.17439 
0.08279 
0.08279 
0.01464 
0.01464 
0.09942 
0.09942 
0.11736 
0.11736 
0.02451 
0.02451 
0.13564 
0.13564 
0.10952 
0.10952 
0.08396 
0.08396 
0.03132 
0.03132 
0.19334 
0.19334 
0.13512 
0.13512 
0.08780 
0.08780 
0.12063 
0.12063 
0.10080 
0.10080 
0.11207 
0.11207 
0.04677 
0.04677 
0.05855 
0.05855 
0.14965 
0.14965 
0.22934 
0.22934 
0.13751 
0.13751 
0.12425 
0.12425 
0.11822 
0.11822 
0.10419 
0.10419 
0.12042 
0.12042 
0.09139 
0.09139 
0.12997 
0.12997 
0.01855 
0.01855 
0.10977 
0.10977 
0.06331 
0.06331 
0.06196 
0.06196 
0.10981 
0.10981 
0.10490 
0.10490 
0.08360 
0.08360 
0.06750 
0.06750 
0.08833 
0.08833 
0.06271 
0.06271 
0.03153 
0.03153 
0.04115 
0.04115 
0.08719 
0.08719 
0.04414 
0.04414 
0.20260 
0.20260 
0.08695 
0.08695 
0.10661 
0.10661 
0.11091 
0.11091 
0.09082 
0.09082 
0.07708 
0.07708 
0.06381 
0.06381 
0.03686 
0.03686 
0.09409 
0.09409 
0.11890 
0.11890 
0.08902 
0.08902 
0.04774 
0.04774 
0.09593 
0.09593 
0.06643 
0.06643 
0.10431 
0.10431 
0.08974 
0.08974 
0.13610 
0.13610 
0.10798 
0.10798 
0.10079 
0.10079 
0.12049 
0.12049 
0.06414 
0.06414 
0.15185 
0.15185 
0.04475 
0.04475 
0.07354 
0.07354 
0.16524 
0.16524 
0.06626 
0.06626 
0.12995 
0.12995 
0.12878 
0.12878 
0.03139 
0.03139 
0.02847 
0.02847 
0.14255 
0.14255 
0.13835 
0.13835 
0.13267 
0.13267 
0.07349 
0.07349 
0.04294 
0.04294 
0.03359 
0.03359 
0.08859 
0.08859 
0.14963 
0.14963 
0.14657 
0.14657 
0.07837 
0.07837 
0.09031 
0.09031 
0.08202 
0.08202 
0.01867 
0.01867 
0.12789 
0.12789 
0.15910 
0.15910 
0.03729 
0.03729 
0.11527 
0.11527 
0.10089 
0.10089 
0.06945 
0.06945 
0.13485 
0.13485 
0.03442 
0.03442 
0.10227 
0.10227 
0.15237 
0.15237 
0.03786 
0.03786 
0.20966 
0.20966 
0.08315 
0.08315 
0.04488 
0.04488 
0.18967 
0.18967 
0.09177 
0.09177 
0.05318 
0.05318 
0.12398 
0.12398 
0.19488 
0.19488 
0.15009 
0.15009 
0.15102 
0.15102 
0.08035 
0.08035 
0.08660 
0.08660 
0.13054 
0.13054 
0.03052 
0.03052 
0.11234 
0.11234 
0.11319 
0.11319 
0.05193 
0.05193 
0.02945 
0.02945 
0.02758 
0.02758 
0.18321 
0.18321 
0.10447 
0.10447 
0.08050 
0.08050 
0.09211 
0.09211 
0.09241 
0.09241 
0.02215 
0.02215 
0.16317 
0.16317 
0.16312 
0.16312 
0.08037 
0.08037 
0.13085 
0.13085 
0.05847 
0.05847 
0.14619 
0.14619 
0.10357 
0.10357 
0.09502 
0.09502 
0.06604 
0.06604 
0.06348 
0.06348 
0.03751 
0.03751 
0.06725 
0.06725 
0.05288 
0.05288 
0.02439 
0.02439 
0.09108 
0.09108 
0.15378 
0.15378 
0.10148 
0.10148 
0.07939 
0.07939 
0.04653 
0.04653 
0.10165 
0.10165 
0.06388 
0.06388 
0.02138 
0.02138 
0.15766 
0.15766 
0.05326 
0.05326 
0.06840 
0.06840 
0.06860 
0.06860 
0.14998 
0.14998 
0.07387 
0.07387 
0.04133 
0.04133 
0.05347 
0.05347 
0.08354 
0.08354 
0.05914 
0.05914 
0.04271 
0.04271 
0.09225 
0.09225 
0.08256 
0.08256 
0.10975 
0.10975 
0.10099 
0.10099 
0.07267 
0.07267 
0.08145 
0.08145 
0.09543 
0.09543 
0.04683 
0.04683 
0.11007 
0.11007 
0.07259 
0.07259 
0.04264 
0.04264 
0.10717 
0.10717 
0.08223 
0.08223 
0.04765 
0.04765 
0.08159 
0.08159 
0.07492 
0.07492 
0.16251 
0.16251 
0.12018 
0.12018 
0.12021 
0.12021 
0.06818 
0.06818 
0.16745 
0.16745 
0.13208 
0.13208 
0.05314 
0.05314 
0.04363 
0.04363 
0.09746 
0.09746 
0.10824 
0.10824 
0.04110 
0.04110 
0.13238 
0.13238 
0.06440 
0.06440 
0.16737 
0.16737 
0.12955 
0.12955 
0.11753 
0.11753 
0.10671 
0.10671 
0.04494 
0.04494 
0.13756 
0.13756 
0.15522 
0.15522 
0.10741 
0.10741 
0.06793 
0.06793 
0.06156 
0.06156 
0.06212 
0.06212 
0.19035 
0.19035 
0.12397 
0.12397 
0.10875 
0.10875 
0.09097 
0.09097 
0.11765 
0.11765 
0.07798 
0.07798 
0.19908 
0.19908 
0.07002 
0.07002 
0.12497 
0.12497 
0.11342 
0.11342 
0.11939 
0.11939 
0.04607 
0.04607 
0.17070 
0.17070 
0.19022 
0.19022 
0.07527 
0.07527 
0.16794 
0.16794 
0.11707 
0.11707 
0.05470 
0.05470 
0.06352 
0.06352 
0.14668 
0.14668 
0.09142 
0.09142 
0.02820 
0.02820 
0.15681 
0.15681 
0.03971 
0.03971 
0.07695 
0.07695 
0.07475 
0.07475 
0.12537 
0.12537 
0.19533 
0.19533 
0.06769 
0.06769 
0.09456 
0.09456 
0.07477 
0.07477 
0.19772 
0.19772 
0.02539 
0.02539 
0.10702 
0.10702 
0.11894 
0.11894 
0.11650 
0.11650 
0.11548 
0.11548 
0.12566 
0.12566 
0.07947 
0.07947 
0.08821 
0.08821 
0.09332 
0.09332 
0.09851 
0.09851 
0.11115 
0.11115 
0.18788 
0.18788 
0.15995 
0.15995 
0.06534 
0.06534 
0.06822 
0.06822 
0.11466 
0.11466 
0.15488 
0.15488 
0.06509 
0.06509 
0.08340 
0.08340 
0.04925 
0.04925 
0.06497 
0.06497 
0.15730 
0.15730 
0.07070 
0.07070 
0.07800 
0.07800 
0.09129 
0.09129 
0.07170 
0.07170 
0.11280 
0.11280 
0.07101 
0.07101 
0.19997 
0.19997 
0.16968 
0.16968 
0.04877 
0.04877 
0.13387 
0.13387 
0.16642 
0.16642 
0.05701 
0.05701 
0.17703 
0.17703 
0.16157 
0.16157 
0.09064 
0.09064 
0.17536 
0.17536 
0.13765 
0.13765 
0.05048 
0.05048 
0.25338 
0.25338 
0.08274 
0.08274 
0.08641 
0.08641 
0.15106 
0.15106 
0.05637 
0.05637 
0.10758 
0.10758 
0.06451 
0.06451 
0.17741 
0.17741 
0.02790 
0.02790 
0.06330 
0.06330 
0.07426 
0.07426 
0.09809 
0.09809 
0.06549 
0.06549 
0.08298 
0.08298 
0.04107 
0.04107 
0.08049 
0.08049 
0.13881 
0.13881 
0.16429 
0.16429 
0.12849 
0.12849 
0.07706 
0.07706 
0.10304 
0.10304 
0.06509 
0.06509 
0.07517 
0.07517 
0.01761 
0.01761 
0.07547 
0.07547 
0.07254 
0.07254 
0.14424 
0.14424 
0.08901 
0.08901 
0.06998 
0.06998 
0.03838 
0.03838 
0.11618 
0.11618 
0.09824 
0.09824 
0.10000 
0.10000 
0.14441 
0.14441 
0.16395 
0.16395 
0.06060 
0.06060 
0.11904 
0.11904 
0.05345 
0.05345 
0.06454 
0.06454 
0.10613 
0.10613 
0.10216 
0.10216 
0.22159 
0.22159 
0.02388 
0.02388 
0.14779 
0.14779 
0.12138 
0.12138 
0.22132 
0.22132 
0.04007 
0.04007 
0.01560 
0.01560 
0.13933 
0.13933 
0.04870 
0.04870 
0.13572 
0.13572 
0.10176 
0.10176 
0.14751 
0.14751 
0.24731 
0.24731 
0.06548 
0.06548 
0.09644 
0.09644 
0.14243 
0.14243 
0.07383 
0.07383 
0.09884 
0.09884 
0.18637 
0.18637 
0.09144 
0.09144 
0.06935 
0.06935 
0.09530 
0.09530 
0.08019 
0.08019 
0.07898 
0.07898 
0.09399 
0.09399 
0.12357 
0.12357 
0.14316 
0.14316 
0.10908 
0.10908 
0.05589 
0.05589 
0.07894 
0.07894 
0.14134 
0.14134 
0.07229 
0.07229 
0.23703 
0.23703 
0.09186 
0.09186 
0.10679 
0.10679 
0.07904 
0.07904 
0.05401 
0.05401 
0.06994 
0.06994 
0.08481 
0.08481 
0.06350 
0.06350 
0.09068 
0.09068 
0.08504 
0.08504 
0.08497 
0.08497 
0.12596 
0.12596 
SCALARS Umean_X double 1 
LOOKUP_TABLE default
-0.05150 
-0.05150 
-0.01600 
-0.01600 
-0.05100 
-0.05100 
0.02150 
0.02150 
0.01050 
0.01050 
0.02200 
0.02200 
-0.08350 
-0.08350 
-0.00150 
-0.00150 
-0.04550 
-0.04550 
-0.00900 
-0.00900 
-0.08300 
-0.08300 
-0.02050 
-0.02050 
-0.03000 
-0.03000 
0.02500 
0.02500 
-0.01800 
-0.01800 
-0.03600 
-0.03600 
0.00900 
0.00900 
0.02700 
0.02700 
-0.00850 
-0.00850 
0.01700 
0.01700 
0.01100 
0.01100 
-0.02700 
-0.02700 
0.03900 
0.03900 
-0.01150 
-0.01150 
-0.04950 
-0.04950 
0.02900 
0.02900 
-0.00100 
-0.00100 
-0.01400 
-0.01400 
-0.03050 
-0.03050 
-0.04150 
-0.04150 
-0.02350 
-0.02350 
-0.09000 
-0.09000 
-0.02000 
-0.02000 
-0.06700 
-0.06700 
-0.05050 
-0.05050 
0.01150 
0.01150 
0.01150 
0.01150 
0.02000 
0.02000 
-0.01550 
-0.01550 
0.10050 
0.10050 
-0.02900 
-0.02900 
-0.02300 
-0.02300 
-0.01050 
-0.01050 
0.02950 
0.02950 
-0.07500 
-0.07500 
-0.00850 
-0.00850 
0.00200 
0.00200 
-0.06350 
-0.06350 
-0.00300 
-0.00300 
-0.02900 
-0.02900 
-0.06300 
-0.06300 
-0.08550 
-0.08550 
0.00600 
0.00600 
-0.12800 
-0.12800 
-0.02150 
-0.02150 
-0.07400 
-0.07400 
0.03900 
0.03900 
0.04600 
0.04600 
-0.00000 
-0.00000 
0.06200 
0.06200 
0.00600 
0.00600 
-0.03400 
-0.03400 
0.04150 
0.04150 
0.00450 
0.00450 
0.00600 
0.00600 
-0.00700 
-0.00700 
0.02400 
0.02400 
-0.02950 
-0.02950 
-0.01900 
-0.01900 
-0.01300 
-0.01300 
0.01500 
0.01500 
-0.01900 
-0.01900 
0.01450 
0.01450 
0.02750 
0.02750 
-0.03400 
-0.03400 
0.02500 
0.02500 
-0.00450 
-0.00450 
0.04050 
0.04050 
0.05950 
0.05950 
-0.08950 
-0.08950 
-0.00300 
-0.00300 
-0.05600 
-0.05600 
-0.02450 
-0.02450 
-0.01450 
-0.01450 
0.03300 
0.03300 
-0.00000 
-0.00000 
0.05700 
0.05700 
-0.04500 
-0.04500 
0.00900 
0.00900 
-0.01900 
-0.01900 
0.03850 
0.03850 
-0.11200 
-0.11200 
-0.05900 
-0.05900 
0.01850 
0.01850 
0.01900 
0.01900 
0.12600 
0.12600 
0.00200 
0.00200 
-0.06350 
-0.06350 
0.03950 
0.03950 
0.01550 
0.01550 
-0.01550 
-0.01550 
0.01400 
0.01400 
-0.05150 
-0.05150 
0.04550 
0.04550 
0.03400 
0.03400 
0.07050 
0.07050 
0.00450 
0.00450 
0.00150 
0.00150 
0.01550 
0.01550 
-0.03700 
-0.03700 
0.08400 
0.08400 
-0.01650 
-0.01650 
0.00650 
0.00650 
0.02850 
0.02850 
-0.04750 
-0.04750 
-0.00550 
-0.00550 
-0.08050 
-0.08050 
-0.00650 
-0.00650 
-0.10500 
-0.10500 
-0.04500 
-0.04500 
-0.01750 
-0.01750 
-0.01800 
-0.01800 
-0.00650 
-0.00650 
0.00050 
0.00050 
0.05550 
0.05550 
0.03100 
0.03100 
0.02100 
0.02100 
0.02950 
0.02950 
-0.04300 
-0.04300 
0.01200 
0.01200 
0.01250 
0.01250 
-0.03000 
-0.03000 
-0.00300 
-0.00300 
-0.10450 
-0.10450 
-0.02300 
-0.02300 
-0.04900 
-0.04900 
-0.00750 
-0.00750 
-0.07400 
-0.07400 
-0.04150 
-0.04150 
-0.01950 
-0.01950 
0.00550 
0.00550 
0.05250 
0.05250 
-0.04850 
-0.04850 
-0.03050 
-0.03050 
-0.00650 
-0.00650 
-0.02350 
-0.02350 
0.00500 
0.00500 
0.08050 
0.08050 
0.00800 
0.00800 
0.03850 
0.03850 
0.00100 
0.00100 
-0.09050 
-0.09050 
-0.01500 
-0.01500 
-0.01500 
-0.01500 
-0.11350 
-0.11350 
0.03550 
0.03550 
0.02350 
0.02350 
0.09200 
0.09200 
0.10800 
0.10800 
-0.06500 
-0.06500 
0.10500 
0.10500 
-0.00650 
-0.00650 
0.00500 
0.00500 
0.03200 
0.03200 
0.00700 
0.00700 
0.03550 
0.03550 
-0.06350 
-0.06350 
0.00150 
0.00150 
0.07300 
0.07300 
0.07450 
0.07450 
0.00300 
0.00300 
0.02100 
0.02100 
0.02850 
0.02850 
0.00400 
0.00400 
0.01550 
0.01550 
-0.03700 
-0.03700 
-0.02000 
-0.02000 
-0.04600 
-0.04600 
0.05250 
0.05250 
-0.00150 
-0.00150 
-0.00100 
-0.00100 
-0.03350 
-0.03350 
0.06450 
0.06450 
0.04000 
0.04000 
-0.00150 
-0.00150 
0.04200 
0.04200 
-0.01500 
-0.01500 
-0.01650 
-0.01650 
0.05350 
0.05350 
-0.08150 
-0.08150 
0.01850 
0.01850 
-0.01050 
-0.01050 
-0.00500 
-0.00500 
-0.01150 
-0.01150 
-0.05550 
-0.05550 
0.04750 
0.04750 
0.05150 
0.05150 
-0.03800 
-0.03800 
-0.04550 
-0.04550 
0.03350 
0.03350 
0.09400 
0.09400 
0.19350 
0.19350 
-0.00300 
-0.00300 
0.04300 
0.04300 
-0.02450 
-0.02450 
-0.00150 
-0.00150 
0.00500 
0.00500 
0.02600 
0.02600 
0.02850 
0.02850 
-0.01050 
-0.01050 
-0.08950 
-0.08950 
0.01000 
0.01000 
0.05250 
0.05250 
-0.06900 
-0.06900 
-0.08100 
-0.08100 
-0.03700 
-0.03700 
-0.00900 
-0.00900 
0.07950 
0.07950 
0.00100 
0.00100 
0.02350 
0.02350 
-0.01150 
-0.01150 
0.03100 
0.03100 
0.00350 
0.00350 
0.00350 
0.00350 
0.06900 
0.06900 
0.01450 
0.01450 
-0.03850 
-0.03850 
-0.06600 
-0.06600 
0.02900 
0.02900 
-0.01600 
-0.01600 
0.01250 
0.01250 
-0.06850 
-0.06850 
-0.08200 
-0.08200 
0.04000 
0.04000 
-0.01050 
-0.01050 
-0.00100 
-0.00100 
-0.02750 
-0.02750 
-0.04500 
-0.04500 
-0.07150 
-0.07150 
0.02150 
0.02150 
-0.03350 
-0.03350 
-0.00150 
-0.00150 
0.01950 
0.01950 
-0.03650 
-0.03650 
-0.02500 
-0.02500 
0.00550 
0.00550 
0.04450 
0.04450 
0.06100 
0.06100 
0.03450 
0.03450 
-0.05000 
-0.05000 
-0.05600 
-0.05600 
0.02050 
0.02050 
0.00800 
0.00800 
-0.10800 
-0.10800 
0.00100 
0.00100 
-0.03600 
-0.03600 
-0.05400 
-0.05400 
0.00500 
0.00500 
-0.00850 
-0.00850 
0.00650 
0.00650 
-0.05650 
-0.05650 
-0.01650 
-0.01650 
-0.02650 
-0.02650 
0.07100 
0.07100 
0.02350 
0.02350 
0.01600 
0.01600 
0.05450 
0.05450 
0.06700 
0.06700 
0.00300 
0.00300 
0.06650 
0.06650 
-0.08900 
-0.08900 
0.00700 
0.00700 
-0.01250 
-0.01250 
-0.02950 
-0.02950 
-0.04100 
-0.04100 
0.03700 
0.03700 
-0.01300 
-0.01300 
0.01650 
0.01650 
-0.06750 
-0.06750 
-0.02750 
-0.02750 
-0.00300 
-0.00300 
-0.01850 
-0.01850 
0.01800 
0.01800 
-0.08850 
-0.08850 
0.14400 
0.14400 
-0.01800 
-0.01800 
0.05950 
0.05950 
-0.00300 
-0.00300 
0.00250 
0.00250 
0.08250 
0.08250 
-0.00500 
-0.00500 
-0.03350 
-0.03350 
-0.08750 
-0.08750 
-0.01950 
-0.01950 
-0.00700 
-0.00700 
-0.00150 
-0.00150 
-0.10000 
-0.10000 
-0.05000 
-0.05000 
0.00350 
0.00350 
0.06650 
0.06650 
0.09200 
0.09200 
0.01050 
0.01050 
0.01850 
0.01850 
0.10400 
0.10400 
0.02250 
0.02250 
0.03050 
0.03050 
-0.00650 
-0.00650 
-0.00600 
-0.00600 
0.01250 
0.01250 
-0.03300 
-0.03300 
-0.03000 
-0.03000 
-0.02600 
-0.02600 
0.02650 
0.02650 
-0.03950 
-0.03950 
-0.03550 
-0.03550 
0.02350 
0.02350 
-0.04850 
-0.04850 
0.02250 
0.02250 
-0.04800 
-0.04800 
-0.01650 
-0.01650 
0.00550 
0.00550 
0.01750 
0.01750 
0.04750 
0.04750 
0.01150 
0.01150 
0.01400 
0.01400 
-0.00150 
-0.00150 
-0.04850 
-0.04850 
-0.01300 
-0.01300 
0.01950 
0.01950 
0.07050 
0.07050 
0.01750 
0.01750 
-0.03300 
-0.03300 
0.04050 
0.04050 
0.00100 
0.00100 
-0.03300 
-0.03300 
-0.00350 
-0.00350 
-0.02400 
-0.02400 
-0.09250 
-0.09250 
-0.02800 
-0.02800 
-0.00450 
-0.00450 
0.02650 
0.02650 
0.08000 
0.08000 
-0.04350 
-0.04350 
0.01900 
0.01900 
0.00900 
0.00900 
-0.01850 
-0.01850 
0.03400 
0.03400 
0.04750 
0.04750 
-0.04550 
-0.04550 
-0.07000 
-0.07000 
0.02150 
0.02150 
0.01700 
0.01700 
-0.10800 
-0.10800 
-0.02150 
-0.02150 
0.00400 
0.00400 
0.13750 
0.13750 
0.02200 
0.02200 
-0.00500 
-0.00500 
-0.03300 
-0.03300 
0.00600 
0.00600 
-0.00550 
-0.00550 
-0.00050 
-0.00050 
0.05250 
0.05250 
0.05350 
0.05350 
-0.00450 
-0.00450 
-0.07200 
-0.07200 
-0.06050 
-0.06050 
0.06300 
0.06300 
0.00050 
0.00050 
0.06750 
0.06750 
0.06150 
0.06150 
-0.02000 
-0.02000 
0.04150 
0.04150 
0.02500 
0.02500 
-0.02650 
-0.02650 
0.15500 
0.15500 
-0.05500 
-0.05500 
-0.01150 
-0.01150 
0.03200 
0.03200 
0.04900 
0.04900 
-0.02400 
-0.02400 
-0.06800 
-0.06800 
-0.00150 
-0.00150 
-0.02800 
-0.02800 
-0.03550 
-0.03550 
-0.04150 
-0.04150 
0.03950 
0.03950 
0.00200 
0.00200 
0.14450 
0.14450 
0.02700 
0.02700 
-0.11200 
-0.11200 
-0.00650 
-0.00650 
0.02100 
0.02100 
-0.04800 
-0.04800 
0.03250 
0.03250 
-0.03150 
-0.03150 
-0.01800 
-0.01800 
-0.07050 
-0.07050 
0.00050 
0.00050 
0.00900 
0.00900 
-0.04500 
-0.04500 
0.03800 
0.03800 
0.08250 
0.08250 
-0.02150 
-0.02150 
-0.03550 
-0.03550 
-0.00600 
-0.00600 
-0.13500 
-0.13500 
-0.01150 
-0.01150 
-0.10600 
-0.10600 
-0.05900 
-0.05900 
0.04850 
0.04850 
-0.02450 
-0.02450 
0.11550 
0.11550 
0.06150 
0.06150 
0.05500 
0.05500 
-0.03050 
-0.03050 
0.02650 
0.02650 
0.01400 
0.01400 
0.05950 
0.05950 
0.03650 
0.03650 
0.03750 
0.03750 
0.03250 
0.03250 
0.04900 
0.04900 
-0.08150 
-0.08150 
0.04750 
0.04750 
0.06400 
0.06400 
0.04300 
0.04300 
-0.00650 
-0.00650 
0.04100 
0.04100 
0.00700 
0.00700 
0.01150 
0.01150 
0.05950 
0.05950 
-0.02750 
-0.02750 
-0.02850 
-0.02850 
0.06350 
0.06350 
0.06700 
0.06700 
0.01050 
0.01050 
-0.00800 
-0.00800 
-0.12350 
-0.12350 
-0.16200 
-0.16200 
0.02450 
0.02450 
-0.04150 
-0.04150 
0.05550 
0.05550 
0.03650 
0.03650 
0.10300 
0.10300 
0.08550 
0.08550 
-0.02000 
-0.02000 
-0.01950 
-0.01950 
0.02150 
0.02150 
0.01700 
0.01700 
0.10250 
0.10250 
-0.05250 
-0.05250 
-0.03300 
-0.03300 
-0.00950 
-0.00950 
0.07450 
0.07450 
-0.00300 
-0.00300 
0.04700 
0.04700 
0.00550 
0.00550 
0.04000 
0.04000 
-0.01800 
-0.01800 
0.02750 
0.02750 
0.00850 
0.00850 
0.00250 
0.00250 
-0.01850 
-0.01850 
0.04700 
0.04700 
0.02950 
0.02950 
-0.00250 
-0.00250 
0.05450 
0.05450 
-0.03400 
-0.03400 
0.02200 
0.02200 
-0.01500 
-0.01500 
0.03000 
0.03000 
-0.03450 
-0.03450 
0.05000 
0.05000 
0.05950 
0.05950 
-0.03400 
-0.03400 
-0.02500 
-0.02500 
0.06950 
0.06950 
-0.07950 
-0.07950 
0.03650 
0.03650 
-0.01700 
-0.01700 
-0.01200 
-0.01200 
-0.02050 
-0.02050 
-0.08200 
-0.08200 
0.00350 
0.00350 
0.02600 
0.02600 
-0.04750 
-0.04750 
-0.00900 
-0.00900 
-0.01250 
-0.01250 
-0.00600 
-0.00600 
0.04750 
0.04750 
-0.02150 
-0.02150 
-0.09600 
-0.09600 
0.01950 
0.01950 
-0.00100 
-0.00100 
0.04250 
0.04250 
-0.01500 
-0.01500 
0.03900 
0.03900 
0.01650 
0.01650 
0.06500 
0.06500 
0.10500 
0.10500 
0.01300 
0.01300 
-0.04750 
-0.04750 
0.07000 
0.07000 
0.01350 
0.01350 
0.03600 
0.03600 
0.05300 
0.05300 
0.02650 
0.02650 
-0.02550 
-0.02550 
0.03850 
0.03850 
-0.06350 
-0.06350 
0.04350 
0.04350 
-0.01050 
-0.01050 
-0.00250 
-0.00250 
0.05150 
0.05150 
0.10250 
0.10250 
0.04100 
0.04100 
0.02850 
0.02850 
-0.06350 
-0.06350 
0.00600 
0.00600 
0.09550 
0.09550 
-0.07000 
-0.07000 
-0.05700 
-0.05700 
-0.03450 
-0.03450 
0.04750 
0.04750 
-0.03350 
-0.03350 
0.02500 
0.02500 
0.04550 
0.04550 
-0.06450 
-0.06450 
0.05400 
0.05400 
-0.01000 
-0.01000 
0.07500 
0.07500 
SCALARS Umean_Y double 1 
LOOKUP_TABLE default
-0.00500 
-0.00500 
-0.01550 
-0.01550 
0.05400 
0.05400 
0.02900 
0.02900 
-0.00850 
-0.00850 
0.04600 
0.04600 
0.01800 
0.01800 
0.04650 
0.04650 