# vtk DataFile Version 2.1 
Trajects from timestep 54 with color option 
ASCII 
 
DATASET POLYDATA POINTS 996 float 
-2.330 3.887 -73.053 
-2.273 4.050 -73.215 
3.522 4.680 -70.703 
3.495 4.813 -70.862 
-3.635 -7.260 -72.830 
-3.487 -7.157 -72.754 
-5.785 8.607 -73.515 
-5.844 8.752 -73.627 
-3.765 7.619 -71.881 
-3.876 7.740 -72.022 
8.007 6.717 -72.760 
7.929 6.738 -72.892 
0.451 6.166 -72.193 
0.432 6.306 -72.276 
-8.199 -6.151 -73.801 
-8.251 -6.020 -73.759 
3.208 -2.577 -67.096 
3.383 -2.244 -67.271 
0.387 -0.996 -69.979 
0.449 -0.672 -70.048 
-12.875 8.265 -76.274 
-12.972 8.262 -76.336 
-0.634 5.009 -70.357 
-0.640 5.213 -70.480 
0.680 8.169 -71.970 
0.563 8.294 -72.113 
1.306 4.018 -68.464 
1.415 4.309 -68.639 
0.915 5.117 -70.605 
0.839 5.230 -70.723 
-5.156 -4.980 -70.029 
-5.032 -4.756 -69.956 
-3.792 1.873 -73.126 
-3.721 2.033 -73.153 
8.505 8.474 -68.359 
8.401 8.595 -68.530 
-0.070 2.449 -73.111 
-0.024 2.593 -73.249 
2.159 -7.982 -72.954 
2.257 -7.810 -72.973 
8.468 11.478 -70.631 
8.462 11.519 -70.768 
-8.349 11.111 -74.421 
-8.351 11.240 -74.393 
-5.156 2.577 -68.264 
-5.039 2.704 -68.244 
4.823 8.538 -71.007 
4.764 8.626 -71.078 
-10.162 1.914 -72.183 
-10.118 1.936 -72.257 
-3.958 -4.187 -70.834 
-3.854 -4.019 -70.700 
5.349 7.356 -70.954 
5.234 7.402 -71.042 
8.025 4.972 -69.248 
8.017 5.109 -69.341 
3.220 11.471 -68.876 
3.193 11.671 -68.961 
-12.555 2.359 -71.121 
-12.454 2.391 -71.164 
-3.796 11.563 -70.035 
-4.028 11.755 -70.083 
-3.539 2.944 -71.494 
-3.489 3.125 -71.568 
8.579 10.751 -68.943 
8.451 10.791 -69.099 
7.629 5.624 -67.523 
7.708 5.699 -67.590 
7.561 -0.427 -67.539 
7.806 -0.160 -67.752 
11.769 10.806 -69.465 
11.581 10.845 -69.611 
6.167 -6.197 -75.803 
6.258 -6.073 -75.887 
-11.623 10.073 -65.996 
-11.553 10.111 -66.070 
-7.431 5.431 -70.147 
-7.351 5.473 -70.281 
5.431 -2.263 -67.462 
5.606 -2.008 -67.588 
2.492 5.166 -65.775 
2.532 5.455 -65.810 
9.435 11.728 -69.037 
9.401 11.675 -69.153 
2.805 10.709 -64.576 
2.791 10.980 -64.658 
-1.525 8.181 -73.220 
-1.657 8.210 -73.263 
1.913 6.818 -69.029 
1.909 7.026 -69.112 
5.676 -9.256 -65.370 
5.859 -9.070 -65.460 
-6.097 1.518 -68.776 
-6.013 1.594 -68.822 
1.073 -1.699 -70.359 
1.122 -1.454 -70.350 
0.970 -9.761 -76.448 
1.112 -9.764 -76.487 
-4.785 -1.297 -66.991 
-4.747 -1.037 -66.683 
13.234 -0.168 -70.356 
13.303 -0.005 -70.454 
-6.144 8.052 -64.082 
-6.225 8.288 -64.277 
-8.908 4.155 -65.459 
-8.897 4.377 -65.359 
9.381 -7.018 -72.391 
9.360 -6.911 -72.458 
-8.269 2.234 -72.354 
-8.266 2.206 -72.330 
-6.498 10.559 -66.273 
-6.531 10.763 -66.370 
-8.368 -9.923 -68.720 
-8.343 -9.803 -68.718 
4.860 -4.360 -65.330 
5.035 -4.158 -65.540 
-0.624 11.286 -69.895 
-0.825 11.385 -69.971 
-13.095 7.886 -69.092 
-13.049 7.890 -69.068 
2.179 2.814 -65.365 
2.269 3.105 -65.368 
2.274 12.566 -69.309 
2.144 12.719 -69.472 
9.446 5.944 -67.651 
9.434 6.103 -67.789 
-3.830 4.534 -64.935 
-3.691 4.922 -64.869 
-8.317 -8.064 -67.567 
-8.317 -7.887 -67.537 
-3.875 -2.637 -68.061 
-3.796 -2.500 -68.068 
-2.260 5.144 -61.973 
-2.269 5.347 -62.049 
12.872 2.174 -70.760 
12.934 2.313 -70.989 
5.406 -2.659 -71.542 
5.435 -2.493 -71.521 
-7.972 11.478 -65.402 
-7.936 11.816 -65.576 
7.199 -0.721 -72.883 
7.259 -0.613 -73.106 
-4.670 -6.270 -70.176 
-4.597 -6.088 -70.199 
8.191 -3.919 -73.936 
8.113 -3.855 -74.062 
17.059 0.356 -69.180 
17.137 0.530 -69.316 
-4.038 1.212 -70.779 
-3.968 1.346 -70.865 
-9.409 -5.582 -69.326 
-9.334 -5.289 -69.265 
3.243 10.431 -73.405 
3.109 10.484 -73.548 
-6.734 2.832 -69.312 
-6.600 2.926 -69.359 
5.978 11.003 -70.128 
5.822 11.125 -70.284 
-3.713 -6.517 -72.702 
-3.579 -6.365 -72.676 
-7.669 7.431 -73.483 
-7.704 7.523 -73.543 
-1.171 6.735 -63.063 
-1.114 6.971 -63.132 
2.941 -8.524 -66.140 
2.988 -8.258 -66.442 
-8.793 -8.749 -68.760 
-8.771 -8.608 -68.743 
9.422 -8.742 -73.100 
9.369 -8.669 -73.163 
1.310 12.423 -64.002 
1.138 12.706 -64.072 
11.724 0.732 -70.943 
11.728 0.874 -71.073 
-12.481 1.780 -71.192 
-12.441 1.813 -71.302 
-6.301 8.675 -69.116 
-6.324 8.847 -69.322 
1.373 -2.967 -65.747 
1.518 -2.729 -65.957 
1.972 2.175 -71.086 
2.043 2.294 -71.365 
5.176 9.422 -71.405 
5.050 9.489 -71.508 
0.257 5.760 -70.189 
0.229 5.952 -70.347 
-3.030 10.089 -75.387 
-3.193 10.238 -75.501 
7.057 12.126 -71.355 
7.028 12.160 -71.504 
-6.608 -2.334 -65.316 
-6.476 -2.140 -65.209 
-9.007 2.001 -61.054 
-8.995 2.229 -60.973 
8.498 4.339 -69.822 
8.499 4.530 -69.925 
-10.625 1.871 -69.906 
-10.569 1.907 -69.881 
-11.747 -8.960 -69.368 
-11.769 -8.690 -69.317 
0.105 3.042 -70.534 
0.214 3.176 -70.716 
14.590 4.535 -72.154 
14.468 4.653 -72.321 
-2.237 -10.780 -67.812 
-2.184 -10.577 -67.982 
-10.806 -3.040 -68.473 
-10.637 -2.808 -68.395 
-11.004 3.208 -69.702 
-10.849 3.236 -69.732 
5.569 3.225 -69.655 
5.586 3.334 -69.777 
3.746 12.509 -68.253 
3.744 12.685 -68.304 
-11.832 5.808 -72.425 
-11.880 5.868 -72.423 
-0.861 7.987 -64.398 
-0.815 8.273 -64.436 
-8.202 -1.901 -68.302 
-8.152 -1.815 -68.140 
10.107 -6.015 -64.763 
10.146 -5.917 -64.775 
-12.959 11.120 -65.150 
-12.939 11.190 -65.155 
-6.024 10.482 -63.660 
-6.044 10.694 -63.552 
12.047 -3.926 -70.756 
12.057 -3.874 -70.808 
-8.179 8.484 -73.149 
-8.271 8.622 -73.319 
10.679 7.767 -70.146 
10.589 7.833 -70.286 
-6.518 -5.859 -66.181 
-6.414 -5.657 -66.200 
-14.609 -5.758 -68.702 
-14.525 -5.578 -68.643 
7.247 4.044 -63.318 
7.213 4.175 -63.293 
-7.067 3.944 -63.669 
-7.004 4.170 -63.624 
-5.062 -9.363 -66.511 
-4.939 -9.183 -66.604 
-10.254 -2.791 -65.625 
-10.259 -2.573 -65.349 
-3.150 -5.645 -73.397 
-3.161 -5.555 -73.384 
-1.937 3.744 -66.811 
-1.787 3.960 -66.939 
1.941 -11.198 -65.851 
2.042 -11.034 -66.017 
12.986 -3.620 -69.839 
13.029 -3.495 -69.903 
-1.844 11.472 -67.375 
-2.074 11.628 -67.393 
-12.018 -6.466 -67.171 
-11.937 -6.301 -67.084 
-4.910 5.639 -66.038 
-4.882 5.781 -66.101 
-6.282 3.050 -61.888 
-6.255 3.325 -61.993 
-7.209 1.856 -62.018 
-7.197 2.044 -62.031 
-0.006 0.872 -72.856 
0.065 1.027 -73.043 
-8.140 -2.183 -65.184 
-8.006 -2.095 -64.984 
6.183 -6.348 -64.817 
6.350 -6.148 -65.008 
1.056 -3.582 -69.200 
1.224 -3.223 -69.446 
-8.827 -6.383 -68.634 
-8.719 -6.160 -68.699 
-3.392 -12.268 -68.663 
-3.248 -12.019 -68.839 
-10.289 5.492 -68.510 
-10.252 5.630 -68.675 
0.266 -5.208 -62.338 
0.422 -4.989 -62.373 
-7.618 -0.269 -65.816 
-7.431 -0.102 -65.697 
6.909 -4.796 -72.857 
6.841 -4.692 -72.895 
2.121 -3.179 -65.563 
2.280 -2.890 -65.700 
12.838 -2.359 -69.682 
12.916 -2.224 -69.752 
1.208 8.748 -63.291 
1.253 9.041 -63.355 
1.710 -5.555 -72.684 
1.693 -5.419 -72.782 
15.367 3.480 -69.910 
15.441 3.656 -70.085 
15.373 10.267 -68.427 
15.354 10.132 -68.525 
-2.374 2.811 -61.557 
-2.168 3.111 -61.616 
14.221 -8.474 -68.237 
14.167 -8.374 -68.243 
-12.176 4.391 -69.342 
-12.115 4.344 -69.387 
17.020 9.355 -69.108 
17.028 9.450 -69.353 
-6.296 0.252 -61.780 
-6.171 0.586 -61.643 
-7.080 11.915 -67.633 
-7.107 12.134 -67.806 
-5.939 2.572 -73.115 
-5.912 2.685 -73.139 
5.843 8.364 -70.945 
5.709 8.469 -70.977 
12.169 -0.882 -69.375 
12.287 -0.793 -69.455 
0.714 -4.078 -63.318 
0.874 -3.794 -63.419 
8.505 8.720 -72.423 
8.389 8.791 -72.630 
-13.178 9.040 -72.931 
-13.239 9.104 -72.967 
-10.237 8.435 -65.649 
-10.142 8.572 -65.827 
-8.960 10.038 -75.249 
-8.942 10.104 -75.288 
-7.933 -8.599 -66.826 
-7.792 -8.336 -66.817 
-10.435 -3.877 -68.309 
-10.308 -3.760 -68.202 
-0.245 4.926 -61.438 
-0.142 5.306 -61.546 
14.777 -6.078 -72.306 
14.754 -5.968 -72.380 
-5.968 2.044 -61.675 
-5.915 2.261 -61.834 
5.273 -4.141 -61.880 
5.392 -3.896 -62.172 
4.111 0.815 -65.330 
4.434 1.247 -65.527 
11.033 -3.665 -70.444 
11.028 -3.620 -70.504 
-5.101 -7.635 -63.992 
-4.812 -7.308 -64.073 
-1.642 5.708 -68.055 
-1.612 5.960 -68.241 
-6.284 2.204 -67.732 
-6.211 2.431 -67.622 
12.733 10.267 -70.907 
12.574 10.274 -71.148 
10.537 -3.343 -70.572 
10.512 -3.352 -70.675 
2.247 -1.015 -77.235 
2.132 -1.030 -77.455 
-13.738 -0.716 -70.774 
-13.662 -0.645 -70.846 
-9.879 -4.744 -67.507 
-9.801 -4.535 -67.392 
-10.189 10.843 -64.730 
-10.160 10.965 -64.868 
13.718 10.750 -70.124 
13.551 10.754 -70.336 
0.390 -6.661 -65.927 
0.522 -6.325 -66.117 
18.155 2.506 -69.673 
18.216 2.743 -69.961 
-12.834 -0.686 -74.902 
-12.802 -0.681 -74.952 
-2.288 4.924 -69.190 
-2.323 5.119 -69.334 
14.357 -5.167 -71.695 
14.431 -5.070 -71.757 
1.448 3.896 -63.086 
1.533 4.166 -63.264 
-6.536 -1.345 -73.870 
-6.495 -1.226 -73.945 
12.123 -3.134 -71.840 
12.060 -3.133 -71.784 
-10.203 0.865 -77.074 
-10.121 0.794 -77.063 
-9.213 -10.626 -73.946 
-9.289 -10.455 -73.940 
4.850 9.297 -74.269 
4.719 9.355 -74.500 
-10.415 9.205 -64.988 
-10.319 9.381 -65.154 
-5.569 5.164 -70.779 
-5.523 5.227 -70.893 
10.622 10.745 -67.063 
10.543 10.658 -67.085 
9.087 -3.816 -71.033 
9.000 -3.775 -71.140 
13.263 9.637 -65.619 
13.306 9.806 -65.754 
7.230 -1.776 -61.361 
7.416 -1.489 -61.518 
1.620 6.817 -70.719 
1.626 6.889 -70.885 
-3.320 2.726 -63.414 
-3.216 2.968 -63.455 
12.276 3.640 -73.817 
12.131 3.699 -73.993 
-5.026 -6.174 -61.885 
-4.874 -5.842 -61.870 
-1.620 -8.466 -61.522 
-1.459 -8.267 -61.411 
-1.980 11.451 -73.010 
-2.037 11.388 -73.200 
9.853 5.875 -63.639 
9.910 6.138 -63.669 
4.697 -10.347 -66.292 
4.763 -10.194 -66.278 
11.828 6.670 -62.666 
11.881 6.926 -62.479 
-14.716 -11.164 -70.667 
-14.520 -10.989 -70.675 
-11.300 4.773 -63.052 
-11.272 5.072 -63.023 
-6.024 7.346 -74.343 
-6.001 7.456 -74.400 
10.693 10.730 -72.472 
10.580 10.725 -72.655 
-10.365 5.122 -65.089 
-10.369 5.294 -65.229 
-5.853 1.650 -65.615 
-5.706 1.893 -65.627 
3.429 -7.953 -69.875 
3.627 -7.693 -69.903 
17.412 7.483 -70.691 
17.427 7.459 -70.895 
-4.764 -0.544 -67.939 
-4.734 -0.357 -67.870 
12.562 -5.077 -64.280 
12.615 -4.875 -64.273 
-2.516 10.875 -73.669 
-2.605 10.760 -73.669 
2.749 9.966 -70.096 
2.646 9.961 -70.121 
3.211 -4.826 -63.810 
3.258 -4.587 -63.821 
-0.742 -9.468 -60.103 
-0.501 -9.281 -60.330 
11.713 2.464 -66.474 
11.751 2.750 -66.662 
-3.506 -3.528 -71.625 
-3.417 -3.431 -71.448 
[...]
POINT_DATA 996 
SCALARS Umean double 1 
LOOKUP_TABLE default
0.11839 
0.11839 
0.10452 
0.10452 
0.09784 
0.09784 
0.09624 
0.09624 
0.10822 
0.10822 
0.07738 
0.07738 
0.08193 
0.08193 
0.07353 
0.07353 
0.20745 
0.20745 
0.16851 
0.16851 
0.05758 
0.05758 
0.11914 
0.11914 
0.11154 
0.11154 
0.17832 
0.17832 
0.09010 
0.09010 
0.13312 
0.13312 
0.08856 
0.08856 
0.11694 
0.11694 
0.10234 
0.10234 
0.09943 
0.09943 
0.07156 
0.07156 
0.06601 
0.06601 
0.08692 
0.08692 
0.06377 
0.06377 
0.04443 
0.04443 
0.11937 
0.11937 
0.07597 
0.07597 
0.08289 
0.08289 
0.10949 
0.10949 
0.05717 
0.05717 
0.15247 
0.15247 
0.10092 
0.10092 
0.10286 
0.10286 
0.06394 
0.06394 
0.21017 
0.21017 
0.12060 
0.12060 
0.08763 
0.08763 
0.05436 
0.05436 
0.08081 
0.08081 
0.16698 
0.16698 
0.14692 
0.14692 
0.06599 
0.06599 
0.14174 
0.14174 
0.07091 
0.07091 
0.11199 
0.11199 
0.13801 
0.13801 
0.06113 
0.06113 
0.12501 
0.12501 
0.07364 
0.07364 
0.20243 
0.20243 
0.10116 
0.10116 
0.15834 
0.15834 
0.12187 
0.12187 
0.06399 
0.06399 
0.01850 
0.01850 
0.11414 
0.11414 
0.06130 
0.06130 
0.16995 
0.16995 
0.11830 
0.11830 
0.02602 
0.02602 
0.15231 
0.15231 
0.12930 
0.12930 
0.10544 
0.10544 
0.20870 
0.20870 
0.08976 
0.08976 
0.07915 
0.07915 
0.10847 
0.10847 
0.13748 
0.13748 
0.08491 
0.08491 
0.19093 
0.19093 
0.12747 
0.12747 
0.09872 
0.09872 
0.08071 
0.08071 
0.11711 
0.11711 
0.08697 
0.08697 
0.15427 
0.15427 
0.10151 
0.10151 
0.08515 
0.08515 
0.12605 
0.12605 
0.10215 
0.10215 
0.05764 
0.05764 
0.12620 
0.12620 
0.20259 
0.20259 
0.07186 
0.07186 
0.05502 
0.05502 
0.16924 
0.16924 
0.09628 
0.09628 
0.06081 
0.06081 
0.13467 
0.13467 
0.17448 
0.17448 
0.15576 
0.15576 
0.08800 
0.08800 
0.12511 
0.12511 
0.12426 
0.12426 
0.07778 
0.07778 
0.12895 
0.12895 
0.12113 
0.12113 
0.10850 
0.10850 
0.03556 
0.03556 
0.13783 
0.13783 
0.12546 
0.12546 
0.11906 
0.11906 
0.13502 
0.13502 
0.14872 
0.14872 
0.08017 
0.08017 
0.08224 
0.08224 
0.09163 
0.09163 
0.03843 
0.03843 
0.14608 
0.14608 
0.09505 
0.09505 
0.05308 
0.05308 
0.03649 
0.03649 
0.11938 
0.11938 
0.03711 
0.03711 
0.11875 
0.11875 
0.08952 
0.08952 
0.11400 
0.11400 
0.10361 
0.10361 
0.06881 
0.06881 
0.11945 
0.11945 
0.11851 
0.11851 
0.17587 
0.17587 
0.04580 
0.04580 
0.14624 
0.14624 
0.12713 
0.12713 
0.07343 
0.07343 
0.13925 
0.13925 
0.10168 
0.10168 
0.07893 
0.07893 
0.14780 
0.14780 
0.09442 
0.09442 
0.12653 
0.12653 
0.12816 
0.12816 
0.16153 
0.16153 
0.23325 
0.23325 
0.12808 
0.12808 
0.16861 
0.16861 
0.10913 
0.10913 
0.13557 
0.13557 
0.13876 
0.13876 
0.06497 
0.06497 
0.17859 
0.17859 
0.08545 
0.08545 
0.15163 
0.15163 
0.08425 
0.08425 
0.12950 
0.12950 
0.08395 
0.08395 
0.18433 
0.18433 
0.05690 
0.05690 
0.04460 
0.04460 
0.13145 
0.13145 
0.19102 
0.19102 
0.14020 
0.14020 
0.05932 
0.05932 
0.08661 
0.08661 
0.08403 
0.08403 
0.17063 
0.17063 
0.12384 
0.12384 
0.04773 
0.04773 
0.12194 
0.12194 
0.03937 
0.03937 
0.14927 
0.14927 
0.10157 
0.10157 
0.20413 
0.20413 
0.06728 
0.06728 
0.13709 
0.13709 
0.19966 
0.19966 
0.28712 
0.28712 
0.03758 
0.03758 
0.22193 
0.22193 
0.15732 
0.15732 
0.13130 
0.13130 
0.14440 
0.14440 
0.05319 
0.05319 
0.12435 
0.12435 
0.06325 
0.06325 
0.12549 
0.12549 
0.09323 
0.09323 
0.13495 
0.13495 
0.20397 
0.20397 
0.18897 
0.18897 
0.02979 
0.02979 
0.12246 
0.12246 
0.06843 
0.06843 
0.16719 
0.16719 
0.07326 
0.07326 
0.04215 
0.04215 
0.05451 
0.05451 
0.09361 
0.09361 
0.13591 
0.13591 
0.13014 
0.13014 
0.06907 
0.06907 
0.05978 
0.05978 
0.07194 
0.07194 
0.11027 
0.11027 
0.18816 
0.18816 
0.09052 
0.09052 
0.13329 
0.13329 
0.11777 
0.11777 
0.18272 
0.18272 
0.13950 
0.13950 
0.10406 
0.10406 
0.13539 
0.13539 
0.08361 
0.08361 
0.16071 
0.16071 
0.13144 
0.13144 
0.15085 
0.15085 
0.06300 
0.06300 
0.10757 
0.10757 
0.11091 
0.11091 
0.14213 
0.14213 
0.16400 
0.16400 
0.10298 
0.10298 
0.10078 
0.10078 
0.10448 
0.10448 
0.07271 
0.07271 
0.05305 
0.05305 
0.12191 
0.12191 
0.19012 
0.19012 
0.17218 
0.17218 
0.11029 
0.11029 
0.15834 
0.15834 
0.09230 
0.09230 
0.06513 
0.06513 
0.05992 
0.05992 
0.11453 
0.11453 
0.14650 
0.14650 
0.05928 
0.05928 
0.14575 
0.14575 
0.14641 
0.14641 
0.14017 
0.14017 
0.17914 
0.17914 
0.06227 
0.06227 
0.03817 
0.03817 
0.08333 
0.08333 
0.15325 
0.15325 
0.08324 
0.08324 
0.10052 
0.10052 
0.12179 
0.12179 
0.11697 
0.11697 
0.21256 
0.21256 
0.13585 
0.13585 
0.10272 
0.10272 
0.07740 
0.07740 
0.08947 
0.08947 
0.17536 
0.17536 
0.09146 
0.09146 
0.14782 
0.14782 
0.11888 
0.11888 
0.14278 
0.14278 
0.15490 
0.15490 
0.02916 
0.02916 
0.16247 
0.16247 
0.09058 
0.09058 
0.10192 
0.10192 
0.16922 
0.16922 
0.10839 
0.10839 
0.18908 
0.18908 
0.13712 
0.13712 
0.08967 
0.08967 
0.04685 
0.04685 
0.06910 
0.06910 
0.10335 
0.10335 
0.03062 
0.03062 
0.11484 
0.11484 
0.16406 
0.16406 
0.18005 
0.18005 
0.04631 
0.04631 
0.14461 
0.14461 
0.03318 
0.03318 
0.13045 
0.13045 
0.10073 
0.10073 
0.07330 
0.07330 
0.11140 
0.11140 
0.15238 
0.15238 
0.08392 
0.08392 
0.16914 
0.16914 
0.08435 
0.08435 
0.07565 
0.07565 
0.07807 
0.07807 
0.12631 
0.12631 
0.09431 
0.09431 
0.09913 
0.09913 
0.10191 
0.10191 
0.13053 
0.13053 
0.14934 
0.14934 
0.19261 
0.19261 
0.02080 
0.02080 
0.11365 
0.11365 
0.07716 
0.07716 
0.10759 
0.10759 
0.20194 
0.20194 
0.08344 
0.08344 
0.12537 
0.12537 
0.09584 
0.09584 
0.11595 
0.11595 
0.16276 
0.16276 
0.17114 
0.17114 
0.07523 
0.07523 
0.09407 
0.09407 
0.11643 
0.11643 
0.17543 
0.17543 
0.13817 
0.13817 
0.12722 
0.12722 
0.19058 
0.19058 
0.08718 
0.08718 
0.03068 
0.03068 
0.09984 
0.09984 
0.15424 
0.15424 
0.07033 
0.07033 
0.05768 
0.05768 
0.19121 
0.19121 
0.15098 
0.15098 
0.04900 
0.04900 
0.12237 
0.12237 
0.11525 
0.11525 
0.15427 
0.15427 
0.09584 
0.09584 
0.14677 
0.14677 
0.13719 
0.13719 
0.10698 
0.10698 
0.12710 
0.12710 
0.14575 
0.14575 
0.03997 
0.03997 
0.08838 
0.08838 
0.14874 
0.14874 
0.08220 
0.08220 
0.11484 
0.11484 
0.11946 
0.11946 
0.12631 
0.12631 
0.11808 
0.11808 
0.07994 
0.07994 
0.24918 
0.24918 
0.04323 
0.04323 
0.08269 
0.08269 
0.14963 
0.14963 
0.09483 
0.09483 
0.16070 
0.16070 
0.15978 
0.15978 
0.13540 
0.13540 
0.05696 
0.05696 
0.21196 
0.21196 
0.13174 
0.13174 
0.12129 
0.12129 
0.17431 
0.17431 
0.18720 
0.18720 
0.09500 
0.09500 
0.15847 
0.15847 
0.10981 
0.10981 
0.10023 
0.10023 
0.14781 
0.14781 
0.11948 
0.11948 
0.13391 
0.13391 
0.07608 
0.07608 
0.11284 
0.11284 
0.15751 
0.15751 
0.07125 
0.07125 
0.08374 
0.08374 
0.09411 
0.09411 
0.12078 
0.12078 
0.07037 
0.07037 
0.11675 
0.11675 
0.10601 
0.10601 
0.20087 
0.20087 
0.09221 
0.09221 
0.10066 
0.10066 
0.16377 
0.16377 
0.04203 
0.04203 
0.16413 
0.16413 
0.05222 
0.05222 
0.08003 
0.08003 
0.08673 
0.08673 
0.16007 
0.16007 
0.16708 
0.16708 
0.14693 
0.14693 
0.15645 
0.15645 
0.07530 
0.07530 
0.15527 
0.15527 
0.23842 
0.23842 
0.19880 
0.19880 
0.23418 
0.23418 
0.10127 
0.10127 
0.04918 
0.04918 
0.13584 
0.13584 
0.20195 
0.20195 
0.11835 
0.11835 
0.14016 
0.14016 
0.09479 
0.09479 
0.15099 
0.15099 
0.22389 
0.22389 
0.15766 
0.15766 
0.08915 
0.08915 
0.04729 
0.04729 
0.14895 
0.14895 
0.05186 
0.05186 
0.10708 
0.10708 
0.11109 
0.11109 
0.07564 
0.07564 
0.15385 
0.15385 
0.13296 
0.13296 
0.13255 
0.13255 
0.14974 
0.14974 
0.03758 
0.03758 
0.13327 
0.13327 
0.02596 
0.02596 
0.16082 
0.16082 
0.12337 
0.12337 
0.08922 
0.08922 
0.11228 
0.11228 
0.08518 
0.08518 
0.13937 
0.13937 
0.07429 
0.07429 
0.14891 
0.14891 
0.11697 
0.11697 
0.09290 
0.09290 
0.20166 
0.20166 
0.11766 
0.11766 
0.25318 
0.25318 
0.17187 
0.17187 
0.14656 
0.14656 
0.08422 
0.08422 
0.15478 
0.15478 
0.22373 
0.22373 
0.05811 
0.05811 
0.16697 
0.16697 
0.12495 
0.12495 
0.19555 
0.19555 
0.11694 
0.11694 
0.15274 
0.15274 
0.08146 
0.08146 
0.11578 
0.11578 
0.06076 
0.06076 
0.19486 
0.19486 
0.14010 
0.14010 
0.11194 
0.11194 
0.11911 
0.11911 
0.21507 
0.21507 
0.11816 
0.11816 
0.15278 
0.15278 
0.23284 
0.23284 
0.12738 
0.12738 
0.08496 
0.08496 
0.09726 
0.09726 
0.14772 
0.14772 
0.11235 
0.11235 
0.07775 
0.07775 
0.13658 
0.13658 
0.09866 
0.09866 
0.10208 
0.10208 
0.11801 
0.11801 
0.07760 
0.07760 
0.06956 
0.06956 
0.21431 
0.21431 
0.17880 
0.17880 
0.04060 
0.04060 
0.20596 
0.20596 
0.14022 
0.14022 
0.06287 
0.06287 
0.13357 
0.13357 
0.16801 
0.16801 
0.11260 
0.11260 
0.18927 
0.18927 
0.24131 
0.24131 
0.24156 
0.24156 
0.10063 
0.10063 
0.13789 
0.13789 
0.17898 
0.17898 
0.12182 
0.12182 
0.07961 
0.07961 
0.12678 
0.12678 
0.13260 
0.13260 
0.12841 
0.12841 
0.13209 
0.13209 
0.02791 
0.02791 
0.08086 
0.08086 
0.09774 
0.09774 
0.09234 
0.09234 
0.09300 
0.09300 
0.07818 
0.07818 
0.13363 
0.13363 
0.18837 
0.18837 
0.07014 
0.07014 
0.10504 
0.10504 
0.18290 
0.18290 
0.04401 
0.04401 
0.06477 
0.06477 
0.17740 
0.17740 
0.10471 
0.10471 
0.11960 
0.11960 
0.24639 
0.24639 
0.05011 
0.05011 
0.06949 
0.06949 
0.13440 
0.13440 
0.17622 
0.17622 
0.20327 
0.20327 
0.14927 
0.14927 
0.10642 
0.10642 
0.15687 
0.15687 
SCALARS Umean_X double 1 
LOOKUP_TABLE default
0.02850 
0.02850 
-0.01350 
-0.01350 
0.07400 
0.07400 
-0.02950 
-0.02950 
-0.05550 
-0.05550 
-0.03900 
-0.03900 
-0.00950 
-0.00950 
-0.02600 
-0.02600 
0.08750 
0.08750 
0.03100 
0.03100 
-0.04850 
-0.04850 
-0.00300 
-0.00300 
-0.05850 
-0.05850 
0.05450 
0.05450 
-0.03800 
-0.03800 
0.06200 
0.06200 
0.03550 
0.03550 
-0.05200 
-0.05200 
0.02300 
0.02300 
0.04900 
0.04900 
-0.00300 
-0.00300 
-0.00100 
-0.00100 
0.05850 
0.05850 
-0.02950 
-0.02950 
0.02200 
0.02200 
0.05200 
0.05200 
-0.05750 
-0.05750 
-0.00400 
-0.00400 
-0.01350 
-0.01350 
0.05050 
0.05050 
-0.11600 
-0.11600 
0.02500 
0.02500 
-0.06400 
-0.06400 
0.03950 
0.03950 
0.12250 
0.12250 
-0.09400 
-0.09400 
0.04550 
0.04550 
0.03500 
0.03500 
0.04000 
0.04000 
0.08750 
0.08750 
0.02000 
0.02000 
-0.01700 
-0.01700 
-0.00700 
-0.00700 
-0.06600 
-0.06600 
-0.00200 
-0.00200 
0.09150 
0.09150 
0.04200 
0.04200 
0.02450 
0.02450 
0.07100 
0.07100 
0.01900 
0.01900 
0.03450 
0.03450 
-0.04050 
-0.04050 
0.00550 
0.00550 
-0.01050 
-0.01050 
0.00150 
0.00150 
-0.01650 
-0.01650 
0.01250 
0.01250 
0.08750 
0.08750 
-0.10050 
-0.10050 
0.02300 
0.02300 
0.04500 
0.04500 
-0.06500 
-0.06500 
-0.00600 
-0.00600 
0.06950 
0.06950 
-0.00000 
-0.00000 
0.03950 
0.03950 
-0.00450 
-0.00450 
0.03100 
0.03100 
0.01450 
0.01450 
0.01800 
0.01800 
0.03000 
0.03000 
0.03650 
0.03650 
-0.03900 
-0.03900 
0.03900 
0.03900 
0.03500 
0.03500 
0.03750 
0.03750 
-0.06700 
-0.06700 
0.06700 
0.06700 
-0.07800 
-0.07800 
0.06700 
0.06700 
-0.01750 
-0.01750 
0.02850 
0.02850 
0.02350 
0.02350 
0.01100 
0.01100 
-0.02650 
-0.02650 
-0.08600 
-0.08600 
0.00200 
0.00200 
0.02000 
0.02000 
-0.01150 
-0.01150 
0.07250 
0.07250 
0.03550 
0.03550 
-0.06300 
-0.06300 
-0.01400 
-0.01400 
-0.08150 
-0.08150 
-0.01450 
-0.01450 
0.06600 
0.06600 
0.00600 
0.00600 
0.00050 
0.00050 
0.02800 
0.02800 
-0.01100 
-0.01100 
0.05450 
0.05450 
-0.06100 
-0.06100 
0.02650 
0.02650 
0.08450 
0.08450 
0.07750 
0.07750 
0.00850 
0.00850 
-0.00100 
-0.00100 
-0.02400 
-0.02400 
0.02300 
0.02300 
0.02500 
0.02500 
0.01950 
0.01950 
0.01000 
0.01000 
-0.01000 
-0.01000 
0.00500 
0.00500 
-0.04600 
-0.04600 
-0.04500 
-0.04500 
0.05200 
0.05200 
0.04200 
0.04200 
-0.01700 
-0.01700 
0.03150 
0.03150 
0.06150 
0.06150 
-0.00250 
-0.00250 
-0.00550 
-0.00550 
0.07500 
0.07500 
0.05050 
0.05050 
0.02150 
0.02150 
-0.11500 
-0.11500 
0.04050 
0.04050 
0.01400 
0.01400 
0.01350 
0.01350 
0.00600 
0.00600 
0.03550 
0.03550 
0.06700 
0.06700 
0.08350 
0.08350 
0.08400 
0.08400 
0.05400 
0.05400 
0.07200 
0.07200 
0.01850 
0.01850 
0.07800 
0.07800 
0.09350 
0.09350 
-0.03400 
-0.03400 
0.07950 
0.07950 
0.03900 
0.03900 
0.02250 
0.02250 
-0.00850 
-0.00850 
0.03700 
0.03700 
-0.00950 
-0.00950 
0.10300 
0.10300 
-0.02700 
-0.02700 
0.03050 
0.03050 
0.00400 
0.00400 
0.06250 
0.06250 
-0.01350 
-0.01350 
0.01350 
0.01350 
-0.06700 
-0.06700 
0.05900 
0.05900 
0.08000 
0.08000 
-0.05800 
-0.05800 
-0.03050 
-0.03050 
0.04750 
0.04750 
0.00900 
0.00900 
0.07050 
0.07050 
0.06350 
0.06350 
0.05150 
0.05150 
-0.01150 
-0.01150 
0.02650 
0.02650 
0.05950 
0.05950 
0.16150 
0.16150 
-0.00250 
-0.00250 
0.14450 
0.14450 
0.01500 
0.01500 
0.03650 
0.03650 
-0.07950 
-0.07950 
-0.01250 
-0.01250 
-0.05750 
-0.05750 
0.03800 
0.03800 
0.03900 
0.03900 
0.01450 
0.01450 
-0.08350 
-0.08350 
0.06600 
0.06600 
0.03050 
0.03050 
0.01600 
0.01600 
-0.01750 
-0.01750 
0.03700 
0.03700 
0.04250 
0.04250 
0.02050 
0.02050 
-0.03150 
-0.03150 
0.04100 
0.04100 
-0.03800 
-0.03800 
-0.06550 
-0.06550 
0.04800 
0.04800 
0.02300 
0.02300 
-0.03950 
-0.03950 
-0.04350 
-0.04350 
0.02150 
0.02150 
0.09300 
0.09300 
0.00300 
0.00300 
0.05200 
0.05200 
-0.07250 
-0.07250 
0.07600 
0.07600 
0.08050 
0.08050 
-0.02850 
-0.02850 
0.02850 
0.02850 
0.03300 
0.03300 
0.02650 
0.02650 
0.09800 
0.09800 
0.01400 
0.01400 
0.01150 
0.01150 
-0.05650 
-0.05650 
-0.00200 
-0.00200 
0.07350 
0.07350 
0.09900 
0.09900 
0.00750 
0.00750 
0.01500 
0.01500 
0.02650 
0.02650 
-0.04450 
-0.04450 
-0.05150 
-0.05150 
0.02350 
0.02350 
0.12050 
0.12050 
0.01900 
0.01900 
0.04450 
0.04450 
0.07500 
0.07500 
-0.03550 
-0.03550 
0.06300 
0.06300 
-0.01700 
-0.01700 
-0.05950 
-0.05950 
0.09200 
0.09200 
0.01200 
0.01200 
0.08100 
0.08100 
0.04900 
0.04900 
0.01500 
0.01500 
-0.00100 
-0.00100 
0.05750 
0.05750 
-0.01400 
-0.01400 
0.03400 
0.03400 
0.14850 
0.14850 
-0.05550 
-0.05550 
-0.04550 
-0.04550 
0.04550 
0.04550 
0.03850 
0.03850 
0.05350 
0.05350 
0.04700 
0.04700 
0.05500 
0.05500 
0.01700 
0.01700 
0.04200 
0.04200 
0.00200 
0.00200 
0.02450 
0.02450 
0.06150 
0.06150 
0.05050 
0.05050 
0.04250 
0.04250 
0.09250 
0.09250 
0.00150 
0.00150 
0.00300 
0.00300 
-0.00200 
-0.00200 
-0.04600 
-0.04600 
0.08850 
0.08850 
0.00600 
0.00600 
0.02250 
0.02250 
0.06000 
0.06000 
0.02600 
0.02600 
-0.01300 
-0.01300 
-0.00900 
-0.00900 
-0.04350 
-0.04350 
0.00100 
0.00100 
-0.02050 
-0.02050 
0.09400 
0.09400 
0.05650 
0.05650 
-0.00750 
-0.00750 
0.08250 
0.08250 
-0.01850 
-0.01850 
0.07400 
0.07400 
0.02000 
0.02000 
0.01700 
0.01700 
0.04100 
0.04100 
0.09550 
0.09550 
-0.08150 
-0.08150 
0.11650 
0.11650 
-0.00100 
-0.00100 
-0.03800 
-0.03800 
-0.01500 
-0.01500 
0.07900 
0.07900 
0.00150 
0.00150 
0.01450 
0.01450 
-0.00900 
-0.00900 
-0.01300 
-0.01300 
0.04650 
0.04650 
0.10450 
0.10450 
-0.00200 
-0.00200 
0.01000 
0.01000 
0.05200 
0.05200 
-0.04400 
-0.04400 
0.07300 
0.07300 
-0.00450 
-0.00450 
-0.00800 
-0.00800 
-0.06400 
-0.06400 
0.03300 
0.03300 
-0.12650 
-0.12650 
0.03800 
0.03800 
0.01550 
0.01550 
0.00650 
0.00650 
0.02000 
0.02000 
0.08300 
0.08300 
0.02000 
0.02000 
0.03350 
0.03350 
0.08500 
0.08500 
-0.00250 
-0.00250 
0.00800 
0.00800 
0.03500 
0.03500 
0.05900 
0.05900 
0.03200 
0.03200 
0.00800 
0.00800 
0.06350 
0.06350 
0.02100 
0.02100 
0.00650 
0.00650 
0.01350 
0.01350 
0.05450 
0.05450 
0.02550 
0.02550 
-0.02800 
-0.02800 
0.08650 
0.08650 
-0.00900 
-0.00900 
-0.01600 
-0.01600 
0.09350 
0.09350 
0.03900 
0.03900 
0.01300 
0.01300 
0.07950 
0.07950 
-0.04150 
-0.04150 
-0.04600 
-0.04600 
0.05150 
0.05150 
-0.05250 
-0.05250 
-0.00850 
-0.00850 
0.10550 
0.10550 
-0.02100 
-0.02100 
0.08100 
0.08100 
0.01900 
0.01900 
-0.07800 
-0.07800 
0.03350 
0.03350 
-0.04750 
-0.04750 
-0.02250 
-0.02250 
0.06600 
0.06600 
-0.04400 
-0.04400 
0.02650 
0.02650 
0.12200 
0.12200 
-0.00250 
-0.00250 
-0.05650 
-0.05650 
0.08150 
0.08150 
0.11800 
0.11800 
-0.07450 
-0.07450 
-0.02450 
-0.02450 
0.09300 
0.09300 
0.05500 
0.05500 
0.09550 
0.09550 
-0.00800 
-0.00800 
0.02200 
0.02200 
-0.03450 
-0.03450 
0.04750 
0.04750 
0.08600 
0.08600 
-0.00600 
-0.00600 
0.05000 
0.05000 
-0.06900 
-0.06900 
-0.01900 
-0.01900 
0.04600 
0.04600 
0.05200 
0.05200 
0.04750 
0.04750 
-0.00900 
-0.00900 
0.03650 
0.03650 
0.03300 
0.03300 
0.11550 
0.11550 
0.01100 
0.01100 
-0.06650 
-0.06650 
0.00450 
0.00450 
0.01550 
0.01550 
0.05750 
0.05750 
0.07000 
0.07000 
0.00950 
0.00950 
0.01800 
0.01800 
0.07750 
0.07750 
0.06300 
0.06300 
0.00350 
0.00350 
0.13150 
0.13150 
-0.05800 
-0.05800 
0.17200 
0.17200 
-0.02050 
-0.02050 
-0.03300 
-0.03300 
0.12900 
0.12900 
0.13950 
0.13950 
-0.10050 
-0.10050 
-0.05750 
-0.05750 
-0.01650 
-0.01650 
0.05350 
0.05350 
0.06400 
0.06400 
0.04000 
0.04000 
0.07150 
0.07150 
-0.02750 
-0.02750 
0.09500 
0.09500 
-0.04150 
-0.04150 
-0.03850 
-0.03850 
0.07750 
0.07750 
0.03450 
0.03450 
0.05350 
0.05350 
-0.02350 
-0.02350 
-0.01700 
-0.01700 
0.03150 
0.03150 
-0.01450 
-0.01450 
0.12050 
0.12050 
0.02400 
0.02400 
0.14750 
0.14750 
0.08450 
0.08450 
0.05950 
0.05950 
0.02350 
0.02350 
-0.05700 
-0.05700 
0.07850 
0.07850 
0.01700 
0.01700 
0.05250 
0.05250 
0.04700 
0.04700 
0.02100 
0.02100 
0.05700 
0.05700 
-0.03500 
-0.03500 
0.17000 
0.17000 
0.06750 
0.06750 
-0.00400 
-0.00400 
0.03100 
0.03100 
-0.07250 
-0.07250 
0.11550 
0.11550 
-0.02350 
-0.02350 
-0.03200 
-0.03200 
0.09150 
0.09150 
-0.04700 
-0.04700 
0.01450 
0.01450 
0.03550 
0.03550 
0.04600 
0.04600 
0.04450 
0.04450 
-0.03500 
-0.03500 
-0.11150 
-0.11150 
-0.03800 
-0.03800 
0.01550 
0.01550 
-0.05350 
-0.05350 
0.09700 
0.09700 
-0.04950 
-0.04950 
0.08500 
0.08500 
0.13500 
0.13500 
0.07400 
0.07400 
-0.02200 
-0.02200 
-0.00300 
-0.00300 
0.03150 
0.03150 
-0.00450 
-0.00450 
0.01450 
0.01450 
0.02850 
0.02850 
-0.01250 
-0.01250 
0.08000 
0.08000 
-0.02650 
-0.02650 
-0.03600 
-0.03600 
0.02000 
0.02000 
0.10750 
0.10750 
0.14000 
0.14000 
-0.02450 
-0.02450 
0.13250 
0.13250 
0.05050 
0.05050 
-0.02500 
-0.02500 
0.02550 
0.02550 
0.10850 
0.10850 
0.07000 
0.07000 
0.13900 
0.13900 
0.21550 
0.21550 
0.16150 
0.16150 
-0.01000 
-0.01000 
0.11500 
0.11500 
-0.06200 
-0.06200 
0.01300 
0.01300 
-0.02150 
-0.02150 
-0.05100 
-0.05100 
-0.01350 
-0.01350 
0.01650 
0.01650 
-0.03350 
-0.03350 
0.00750 
0.00750 
-0.01150 
-0.01150 
0.02800 
0.02800 
-0.06550 
-0.06550 
0.06300 
0.06300 
-0.06400 
-0.06400 
-0.05550 
-0.05550 
-0.00700 
-0.00700 
0.04350 
0.04350 
0.05700 
0.05700 
0.08150 
0.08150 
0.02600 
0.02600 
0.01100 
0.01100 
0.07600 
0.07600 
-0.04600 
-0.04600 
-0.03650 
-0.03650 
0.13650 
0.13650 
-0.01050 
-0.01050 
-0.02850 
-0.02850 
0.00400 
0.00400 
-0.04800 
-0.04800 
-0.00050 
-0.00050 
-0.10750 
-0.10750 
0.06100 
0.06100 
-0.06850 
-0.06850 
SCALARS Umean_Y double 1 
LOOKUP_TABLE default
0.08150 
0.08150 
0.06650 
0.06650 
0.05150 
0.05150 
0.07250 
0.07250 
0.06050 
0.06050 
0.01050 
0.01050 
0.07000 
0.07000 
0.06550 
0.06550 
0.16650 
0.16650 
0.16200 
0.16200 
-0.00150 
-0.00150 
0.10200 
0.10200 
0.06250 
0.06250 
0.14550 
0.14550 
0.05650 
0.05650 
0.11200 
0.11200 
0.08000 
0.08000 
0.06050 
0.06050 
0.07200 
0.07200 
0.08600 
0.08600 
0.02050 
0.02050 
0.06450 
0.06450 
0.06350 
0.06350 
0.04400 
0.04400 
0.01100 
0.01100 
0.08400 
0.08400 
0.02300 
0.02300 
0.06850 
0.06850 
0.10000 
0.10000 
0.01600 
0.01600 
0.09600 
0.09600 
0.09050 
0.09050 
0.02000 
0.02000 
0.03750 
0.03750 
0.13350 
0.13350 
0.01950 
0.01950 
0.06200 
0.06200 
0.01900 
0.01900 
0.02100 
0.02100 
0.12750 
0.12750 
0.14450 
0.14450 
-0.02650 
-0.02650 
0.13550 
0.13550 
0.01450 
0.01450 
0.10400 
0.10400 
0.09300 
0.09300 
0.03800 
0.03800 
0.12250 
0.12250 
-0.00150 
-0.00150 
0.13000 
0.13000 
0.08150 
0.08150 
0.11800 
0.11800 
0.11100 
0.11100 
0.05350 
0.05350 
-0.01400 
-0.01400 
0.10200 
0.10200 
0.06000 
0.06000 
0.10100 
0.10100 
0.04950 
0.04950 
0.00200 
0.00200 
0.14550 
0.14550 
0.07650 
0.07650 
0.07950 
0.07950 
0.19400 
0.19400 
0.08850 
0.08850 
0.06850 
0.06850 
0.10150 
0.10150 
0.06950 
0.06950 
0.08300 
0.08300 
0.16900 
0.16900 
0.05400 
0.05400 
0.09100 
0.09100 
0.03200 
0.03200 
0.08700 
0.08700 
0.06700 
0.06700 
0.14650 
0.14650 
0.02650 
0.02650 
0.04700 
0.04700 
0.06100 
0.06100 
0.07600 
0.07600 
0.04600 
0.04600 
0.11800 
0.11800 
0.13300 
0.13300 
0.07050 
0.07050 
0.03650 
0.03650 
0.14150 