# vtk DataFile Version 2.1 
Trajects from timestep 19 with color option 
ASCII 
 
DATASET POLYDATA POINTS 1020 float 
5.243 4.139 -71.212 
5.130 4.146 -71.317 
3.737 8.262 -71.922 
3.748 8.210 -72.061 
-6.862 5.709 -71.966 
-6.790 5.778 -72.012 
-2.282 -4.407 -69.193 
-2.192 -4.167 -69.213 
-2.659 -3.136 -71.268 
-2.731 -2.948 -71.363 
-6.400 -0.335 -70.498 
-6.365 -0.261 -70.399 
3.159 8.912 -71.927 
3.142 8.870 -72.117 
-6.598 -1.709 -73.462 
-6.697 -1.617 -73.549 
5.564 4.970 -69.168 
5.383 4.993 -69.190 
-12.185 -2.951 -71.092 
-12.322 -2.898 -71.083 
3.260 1.653 -72.009 
3.136 1.658 -72.149 
-7.305 10.223 -72.353 
-7.336 10.263 -72.411 
3.397 5.177 -67.838 
3.261 5.303 -67.883 
10.130 6.829 -70.507 
9.901 6.936 -70.587 
-5.681 -2.879 -70.910 
-5.576 -2.676 -70.915 
5.813 -4.117 -72.082 
5.901 -4.145 -72.210 
1.061 -7.376 -71.313 
1.003 -7.379 -71.273 
-15.458 -3.619 -72.827 
-15.636 -3.507 -72.765 
-9.157 1.511 -72.430 
-9.110 1.522 -72.497 
2.159 -7.084 -70.145 
2.209 -7.035 -70.267 
14.909 3.373 -72.189 
14.804 3.524 -72.180 
4.347 8.054 -66.491 
4.181 8.124 -66.605 
5.401 1.370 -67.359 
5.407 1.388 -67.399 
-8.781 -2.312 -74.411 
-8.860 -2.301 -74.491 
10.694 2.411 -70.313 
10.591 2.454 -70.325 
-12.594 10.255 -74.211 
-12.670 10.257 -74.136 
-3.927 5.302 -70.547 
-4.003 5.408 -70.623 
1.706 -3.750 -70.652 
1.792 -3.661 -70.770 
-1.970 9.181 -72.046 
-1.939 9.231 -72.325 
2.388 11.928 -68.809 
2.403 11.904 -68.876 
-5.835 0.986 -72.563 
-5.881 0.943 -72.629 
-3.318 5.640 -70.842 
-3.397 5.761 -70.927 
12.054 6.928 -68.379 
11.908 7.036 -68.533 
0.824 2.821 -67.112 
0.878 2.938 -67.215 
-11.996 -1.992 -72.090 
-12.098 -1.964 -72.124 
1.319 1.694 -72.553 
1.089 1.691 -72.722 
-1.197 8.621 -69.659 
-1.289 8.603 -69.949 
0.299 4.593 -68.637 
0.226 4.674 -68.740 
10.702 12.135 -72.728 
10.541 12.260 -72.704 
5.899 11.739 -69.046 
5.890 11.775 -69.134 
-3.169 11.055 -75.967 
-3.190 11.115 -76.172 
2.084 11.613 -68.742 
2.122 11.610 -68.784 
-9.612 -2.989 -68.533 
-9.664 -2.721 -68.487 
-0.656 9.500 -70.242 
-0.655 9.510 -70.332 
0.273 1.223 -67.814 
0.297 1.381 -67.929 
-8.958 8.384 -72.402 
-8.981 8.436 -72.449 
2.646 2.713 -68.218 
2.653 2.845 -68.369 
-1.315 0.944 -64.893 
-1.343 1.141 -65.010 
-1.209 -7.840 -73.781 
-1.267 -7.784 -73.732 
-8.313 -4.741 -69.953 
-8.331 -4.677 -69.986 
-9.949 4.149 -68.511 
-9.937 4.071 -68.583 
-4.499 12.646 -69.813 
-4.459 12.727 -69.943 
-1.091 0.769 -68.716 
-1.079 0.950 -68.881 
4.931 2.538 -65.799 
4.953 2.624 -65.866 
-5.102 -3.004 -72.209 
-5.188 -2.910 -72.291 
10.448 -6.643 -68.969 
10.499 -6.604 -68.949 
-11.931 5.404 -73.599 
-11.932 5.397 -73.595 
-0.632 -11.367 -71.917 
-0.494 -11.222 -71.995 
9.516 9.297 -67.729 
9.358 9.273 -67.856 
-1.980 9.964 -68.661 
-1.993 9.996 -68.805 
10.287 6.538 -65.398 
10.220 6.777 -65.483 
0.294 -1.862 -65.616 
0.326 -1.616 -65.686 
-9.559 1.722 -65.035 
-9.537 1.994 -65.201 
-6.851 -9.164 -68.007 
-6.782 -8.982 -67.971 
-13.453 5.440 -69.848 
-13.558 5.348 -69.771 
5.442 11.331 -66.461 
5.523 11.438 -66.463 
2.967 -5.331 -74.748 
2.924 -5.312 -74.830 
1.172 5.238 -70.198 
1.038 5.306 -70.297 
-3.870 -0.790 -67.851 
-3.770 -0.488 -67.859 
-0.773 9.546 -66.494 
-0.864 9.677 -66.571 
-7.472 -5.624 -70.683 
-7.473 -5.520 -70.663 
-12.565 12.109 -73.270 
-12.612 12.152 -73.240 
-2.973 11.540 -66.044 
-2.874 11.670 -66.153 
8.195 -4.464 -66.762 
8.323 -4.369 -66.829 
-0.178 -11.983 -76.966 
-0.152 -12.049 -77.004 
-3.814 9.531 -70.955 
-3.858 9.667 -71.073 
-11.117 2.595 -62.704 
-11.136 2.771 -62.723 
-2.004 6.028 -69.364 
-2.023 6.189 -69.602 
3.863 3.755 -65.908 
3.862 3.949 -66.025 
-8.024 -9.949 -68.095 
-7.963 -9.720 -67.966 
6.985 -1.893 -72.626 
7.023 -1.977 -72.810 
-10.416 -7.493 -69.388 
-10.323 -7.437 -69.190 
-10.669 2.870 -67.582 
-10.670 2.801 -67.695 
-5.255 -6.862 -70.783 
-5.262 -6.712 -70.774 
-3.531 10.537 -70.155 
-3.432 10.604 -70.200 
13.357 12.098 -68.876 
13.164 12.238 -68.943 
-2.517 7.708 -71.175 
-2.617 7.881 -71.340 
-9.489 -9.159 -72.667 
-9.441 -8.991 -72.395 
11.825 3.954 -70.049 
11.696 4.066 -70.011 
10.647 5.533 -73.076 
10.486 5.527 -73.148 
9.924 -0.714 -68.853 
9.938 -0.604 -68.936 
-10.843 4.451 -67.262 
-10.919 4.437 -67.356 
-5.141 2.762 -65.909 
-5.224 3.041 -65.980 
-6.053 2.546 -66.560 
-6.104 2.883 -66.703 
-0.922 10.442 -68.016 
-0.936 10.456 -68.141 
12.486 -4.846 -71.643 
12.510 -4.836 -71.639 
7.460 0.305 -67.047 
7.556 0.389 -67.141 
4.275 0.837 -65.278 
4.305 0.984 -65.417 
-11.490 0.634 -75.572 
-11.559 0.642 -75.598 
-6.598 8.858 -70.725 
-6.614 9.006 -70.781 
4.225 0.911 -70.654 
4.316 0.962 -70.743 
-10.991 7.036 -71.022 
-11.034 7.083 -70.987 
-10.047 5.367 -66.828 
-10.095 5.443 -66.837 
-0.629 -11.636 -65.102 
-0.373 -11.391 -65.220 
12.922 9.905 -67.689 
12.846 10.057 -67.803 
-2.602 -0.202 -67.076 
-2.563 0.055 -67.183 
-3.618 11.939 -69.783 
-3.498 12.103 -69.928 
4.500 -7.551 -70.006 
4.536 -7.481 -70.112 
7.735 1.522 -65.933 
7.686 1.572 -66.012 
-2.361 7.251 -61.093 
-2.372 7.517 -61.133 
4.971 5.776 -67.816 
4.787 5.830 -67.734 
3.165 -4.530 -67.069 
3.364 -4.306 -67.101 
3.144 6.457 -65.558 
3.065 6.576 -65.601 
-5.585 0.116 -65.603 
-5.553 0.359 -65.656 
-6.677 -7.230 -68.646 
-6.593 -7.026 -68.550 
-10.013 0.273 -67.358 
-10.040 0.362 -67.375 
-12.428 10.327 -65.980 
-12.446 10.285 -65.954 
-12.092 0.566 -67.667 
-12.114 0.498 -67.830 
-7.234 -7.519 -70.683 
-7.144 -7.393 -70.514 
2.153 -5.704 -70.176 
2.279 -5.646 -70.457 
-14.111 -5.042 -71.095 
-14.219 -5.119 -71.140 
-6.914 -8.068 -67.537 
-6.807 -7.748 -67.452 
1.061 -7.541 -67.659 
1.271 -7.252 -67.673 
-8.386 3.279 -66.066 
-8.330 3.458 -66.137 
-4.312 -7.919 -72.931 
-4.350 -7.872 -72.938 
5.507 8.991 -73.062 
5.523 8.945 -73.235 
3.357 -8.992 -68.634 
3.384 -8.973 -68.716 
2.658 11.510 -65.490 
2.677 11.627 -65.469 
-4.047 2.153 -69.894 
-4.113 2.357 -70.138 
-6.853 3.793 -65.089 
-6.804 4.113 -65.088 
-3.873 4.186 -67.876 
-3.859 4.439 -67.921 
10.470 -9.032 -67.826 
10.530 -8.862 -67.839 
4.950 -5.006 -67.010 
5.056 -4.886 -67.184 
-11.350 -8.471 -68.306 
-11.300 -8.386 -67.984 
10.282 4.481 -72.889 
10.163 4.515 -73.018 
-13.729 5.635 -72.109 
-13.876 5.516 -72.020 
6.423 -12.685 -66.751 
6.574 -12.628 -66.801 
-6.608 12.945 -63.920 
-6.591 13.169 -64.005 
6.768 -5.551 -69.114 
6.790 -5.542 -69.152 
6.615 -0.560 -66.663 
6.661 -0.445 -66.721 
-4.636 -6.306 -66.036 
-4.439 -6.013 -66.049 
-4.370 -7.904 -71.682 
-4.345 -7.813 -71.728 
10.370 3.938 -67.298 
10.339 4.045 -67.390 
-3.674 -11.179 -61.419 
-3.541 -10.951 -61.459 
9.165 10.718 -66.753 
9.312 10.741 -66.890 
13.967 8.193 -68.806 
13.799 8.126 -68.958 
-13.951 8.753 -71.327 
-13.839 8.719 -71.284 
14.567 1.465 -71.827 
14.530 1.577 -71.967 
-14.637 5.454 -69.868 
-14.750 5.377 -69.770 
6.115 -5.207 -66.148 
6.227 -5.059 -66.241 
1.358 -8.146 -71.943 
1.253 -8.153 -71.916 
-7.450 -11.349 -68.380 
-7.281 -11.261 -68.230 
8.627 7.794 -74.132 
8.455 7.668 -74.185 
-9.027 -4.188 -69.331 
-9.006 -3.954 -69.363 
-9.779 7.906 -72.786 
-9.809 7.926 -72.871 
-7.154 -6.398 -66.805 
-7.109 -6.097 -66.668 
-9.680 -10.935 -71.514 
-9.590 -10.853 -71.538 
5.513 -5.677 -70.918 
5.447 -5.656 -70.954 
-9.731 0.677 -62.163 
-9.729 1.035 -62.310 
11.949 11.781 -67.215 
11.800 11.822 -67.335 
-5.749 -0.366 -72.035 
-5.746 -0.303 -72.088 
-4.671 -4.480 -68.391 
-4.622 -4.249 -68.395 
17.328 1.840 -69.764 
17.345 1.892 -69.839 
-10.299 8.913 -63.808 
-10.256 8.899 -63.702 
-10.431 -10.132 -68.710 
-10.376 -9.972 -68.523 
7.771 6.994 -66.635 
7.720 7.174 -66.709 
-9.400 -1.995 -62.272 
-9.514 -1.841 -62.289 
9.072 -9.782 -68.552 
9.129 -9.632 -68.646 
-7.473 9.082 -66.594 
-7.428 9.400 -66.703 
6.904 13.098 -67.440 
7.009 13.190 -67.522 
-11.701 3.533 -68.246 
-11.771 3.421 -68.363 
-6.767 11.569 -63.380 
-6.726 11.860 -63.428 
5.447 -12.145 -66.457 
5.550 -12.121 -66.490 
12.436 -5.957 -69.682 
12.429 -5.866 -69.708 
9.444 7.554 -64.042 
9.461 7.664 -64.127 
5.692 2.301 -75.941 
5.568 2.255 -76.180 
-0.502 -8.044 -67.082 
-0.231 -7.815 -67.116 
16.044 0.228 -70.568 
15.937 0.388 -70.688 
-7.909 1.741 -75.304 
-7.831 1.712 -75.304 
-13.405 -1.344 -67.495 
-13.540 -1.252 -67.470 
-12.586 8.903 -69.869 
-12.647 8.815 -69.864 
11.865 -3.137 -66.735 
11.961 -2.932 -66.759 
-8.640 -10.376 -68.170 
-8.463 -10.196 -68.038 
-13.559 -0.634 -69.066 
-13.637 -0.702 -69.137 
9.779 12.778 -66.414 
9.876 12.808 -66.451 
-6.705 -2.914 -69.638 
-6.643 -2.808 -69.634 
0.946 -1.934 -65.405 
0.976 -1.637 -65.485 
14.278 -7.846 -71.731 
14.268 -7.754 -71.870 
14.330 0.709 -70.582 
14.294 0.863 -70.724 
-11.330 -11.151 -70.167 
-11.268 -10.854 -69.951 
-8.090 -2.757 -62.848 
-8.046 -2.465 -62.741 
6.407 -10.260 -74.007 
6.307 -10.235 -74.027 
10.100 -5.968 -67.794 
10.182 -5.762 -67.799 
11.197 -4.300 -73.896 
11.320 -4.357 -73.831 
-10.403 -1.907 -67.789 
-10.514 -1.738 -67.718 
-6.331 8.303 -76.982 
-6.323 8.316 -77.004 
-1.580 12.125 -65.014 
-1.426 12.431 -65.130 
10.926 3.892 -66.785 
10.837 4.067 -66.837 
-1.835 8.481 -68.724 
-1.973 8.651 -68.799 
9.265 0.435 -65.429 
9.278 0.576 -65.454 
-9.363 11.324 -62.288 
-9.345 11.457 -62.155 
7.552 -2.741 -68.283 
7.641 -2.614 -68.353 
-12.007 -9.838 -70.003 
-12.012 -9.700 -69.896 
2.822 -12.030 -69.577 
2.817 -11.957 -69.525 
11.529 -7.036 -70.669 
11.551 -7.060 -70.677 
-9.633 -11.940 -68.035 
-9.590 -11.651 -67.831 
1.937 -1.877 -61.959 
2.056 -1.585 -62.030 
1.539 8.163 -75.258 
1.618 8.187 -75.376 
5.073 3.320 -74.001 
4.950 3.302 -74.178 
-12.830 -9.172 -67.980 
-12.971 -8.979 -67.891 
13.004 -2.283 -68.777 
12.979 -2.259 -68.831 
14.408 6.144 -71.926 
14.049 6.338 -71.818 
-12.077 -1.447 -75.677 
-12.175 -1.408 -75.824 
7.648 8.982 -66.452 
7.543 8.925 -66.521 
2.881 -3.623 -63.470 
3.151 -3.389 -63.496 
3.132 -3.213 -64.129 
3.233 -3.012 -64.201 
-8.297 12.489 -64.139 
-8.329 12.764 -64.183 
-9.801 -1.485 -61.852 
-9.870 -1.222 -62.019 
1.152 -12.343 -75.910 
1.259 -12.281 -75.923 
-3.316 10.285 -61.884 
-3.214 10.488 -62.005 
[...]
POINT_DATA 1020 
SCALARS Umean double 1 
LOOKUP_TABLE default
0.07721 
0.07721 
0.07441 
0.07441 
0.05491 
0.05491 
0.12855 
0.12855 
0.11130 
0.11130 
0.06423 
0.06423 
0.09766 
0.09766 
0.08036 
0.08036 
0.09189 
0.09189 
0.07358 
0.07358 
0.09354 
0.09354 
0.03849 
0.03849 
0.09539 
0.09539 
0.13256 
0.13256 
0.11430 
0.11430 
0.07892 
0.07892 
0.03526 
0.03526 
0.10963 
0.10963 
0.04129 
0.04129 
0.07033 
0.07033 
0.09207 
0.09207 
0.10660 
0.10660 
0.02214 
0.02214 
0.05648 
0.05648 
0.05613 
0.05613 
0.05340 
0.05340 
0.07548 
0.07548 
0.08550 
0.08550 
0.14257 
0.14257 
0.03637 
0.03637 
0.04561 
0.04561 
0.08383 
0.08383 
0.11905 
0.11905 
0.08248 
0.08248 
0.05555 
0.05555 
0.14271 
0.14271 
0.15239 
0.15239 
0.07500 
0.07500 
0.10262 
0.10262 
0.04775 
0.04775 
0.10731 
0.10731 
0.02836 
0.02836 
0.13842 
0.13842 
0.04528 
0.04528 
0.09844 
0.09844 
0.03688 
0.03688 
0.10034 
0.10034 
0.11541 
0.11541 
0.04717 
0.04717 
0.03711 
0.03711 
0.05341 
0.05341 
0.07915 
0.07915 
0.12261 
0.12261 
0.05561 
0.05561 
0.07576 
0.07576 
0.03362 
0.03362 
0.00406 
0.00406 
0.10742 
0.10742 
0.10206 
0.10206 
0.07404 
0.07404 
0.13118 
0.13118 
0.12888 
0.12888 
0.15971 
0.15971 
0.09897 
0.09897 
0.07972 
0.07972 
0.06711 
0.06711 
0.04726 
0.04726 
0.08997 
0.08997 
0.15911 
0.15911 
0.08856 
0.08856 
0.05296 
0.05296 
0.03521 
0.03521 
0.09821 
0.09821 
0.08646 
0.08646 
0.04024 
0.04024 
0.09268 
0.09268 
0.08902 
0.08902 
0.14398 
0.14398 
0.11328 
0.11328 
0.13491 
0.13491 
0.10290 
0.10290 
0.11290 
0.11290 
0.06620 
0.06620 
0.07522 
0.07522 
0.06387 
0.06387 
0.12383 
0.12383 
0.12957 
0.12957 
0.16164 
0.16164 
0.08751 
0.08751 
0.08823 
0.08823 
0.06925 
0.06925 
0.06084 
0.06084 
0.14981 
0.14981 
0.18481 
0.18481 
0.06328 
0.06328 
0.01315 
0.01315 
0.07923 
0.07923 
0.10226 
0.10226 
0.03708 
0.03708 
0.07952 
0.07952 
0.06856 
0.06856 
0.03634 
0.03634 
0.04517 
0.04517 
0.18674 
0.18674 
0.10232 
0.10232 
0.14055 
0.14055 
0.12482 
0.12482 
0.06602 
0.06602 
0.05278 
0.05278 
0.13461 
0.13461 
0.10428 
0.10428 
0.15067 
0.15067 
0.07458 
0.07458 
0.12538 
0.12538 
0.12030 
0.12030 
0.04727 
0.04727 
0.02629 
0.02629 
0.08899 
0.08899 
0.11460 
0.11460 
0.15669 
0.15669 
0.07003 
0.07003 
0.17398 
0.17398 
0.17876 
0.17876 
0.10027 
0.10027 
0.03042 
0.03042 
0.08986 
0.08986 
0.04420 
0.04420 
0.06019 
0.06019 
0.16241 
0.16241 
0.16187 
0.16187 
0.12868 
0.12868 
0.09037 
0.09037 
0.11823 
0.11823 
0.16838 
0.16838 
0.08938 
0.08938 
0.10451 
0.10451 
0.08448 
0.08448 
0.12009 
0.12009 
0.02241 
0.02241 
0.06838 
0.06838 
0.17665 
0.17665 
0.05249 
0.05249 
0.07224 
0.07224 
0.13349 
0.13349 
0.10113 
0.10113 
0.11813 
0.11813 
0.06235 
0.06235 
0.09153 
0.09153 
0.08412 
0.08412 
0.10380 
0.10380 
0.05432 
0.05432 
0.12125 
0.12125 
0.10985 
0.10985 
0.11855 
0.11855 
0.04617 
0.04617 
0.16688 
0.16688 
0.06205 
0.06205 
0.03903 
0.03903 
0.19351 
0.19351 
0.09783 
0.09783 
0.04119 
0.04119 
0.11809 
0.11809 
0.04642 
0.04642 
0.05762 
0.05762 
0.12609 
0.12609 
0.10059 
0.10059 
0.09618 
0.09618 
0.09299 
0.09299 
0.16958 
0.16958 
0.08095 
0.08095 
0.08822 
0.08822 
0.14888 
0.14888 
0.05539 
0.05539 
0.04745 
0.04745 
0.07002 
0.07002 
0.13658 
0.13658 
0.17821 
0.17821 
0.11341 
0.11341 
0.04161 
0.04161 
0.08263 
0.08263 
0.05360 
0.05360 
0.11382 
0.11382 
0.14244 
0.14244 
0.06275 
0.06275 
0.05403 
0.05403 
0.06143 
0.06143 
0.15452 
0.15452 
0.08349 
0.08349 
0.10627 
0.10627 
0.18622 
0.18622 
0.15704 
0.15704 
0.05250 
0.05250 
0.11089 
0.11089 
0.07517 
0.07517 
0.10715 
0.10715 
0.01339 
0.01339 
0.18084 
0.18084 
0.10155 
0.10155 
0.11572 
0.11572 
0.07189 
0.07189 
0.09447 
0.09447 
0.08507 
0.08507 
0.08735 
0.08735 
0.04488 
0.04488 
0.01676 
0.01676 
0.17818 
0.17818 
0.16161 
0.16161 
0.07201 
0.07201 
0.10815 
0.10815 
0.12753 
0.12753 
0.03208 
0.03208 
0.21106 
0.21106 
0.09046 
0.09046 
0.06898 
0.06898 
0.17912 
0.17912 
0.11810 
0.11810 
0.14017 
0.14017 
0.15955 
0.15955 
0.06217 
0.06217 
0.12870 
0.12870 
0.13939 
0.13939 
0.04920 
0.04920 
0.11768 
0.11768 
0.08737 
0.08737 
0.06757 
0.06757 
0.02934 
0.02934 
0.16135 
0.16135 
0.08169 
0.08169 
0.09727 
0.09727 
0.18451 
0.18451 
0.12987 
0.12987 
0.13199 
0.13199 
0.15391 
0.15391 
0.07170 
0.07170 
0.09793 
0.09793 
0.07864 
0.07864 
0.14933 
0.14933 
0.19382 
0.19382 
0.09520 
0.09520 
0.03601 
0.03601 
0.03392 
0.03392 
0.14174 
0.14174 
0.18667 
0.18667 
0.09907 
0.09907 
0.06552 
0.06552 
0.11225 
0.11225 
0.10553 
0.10553 
0.09954 
0.09954 
0.14762 
0.14762 
0.13741 
0.13741 
0.07476 
0.07476 
0.11799 
0.11799 
0.12171 
0.12171 
0.19060 
0.19060 
0.11174 
0.11174 
0.11683 
0.11683 
0.04988 
0.04988 
0.10849 
0.10849 
0.12337 
0.12337 
0.19086 
0.19086 
0.07570 
0.07570 
0.03708 
0.03708 
0.08097 
0.08097 
0.16332 
0.16332 
0.06537 
0.06537 
0.02237 
0.02237 
0.12978 
0.12978 
0.17211 
0.17211 
0.07467 
0.07467 
0.04641 
0.04641 
0.06184 
0.06184 
0.15594 
0.15594 
0.14838 
0.14838 
0.04854 
0.04854 
0.15653 
0.15653 
0.13963 
0.13963 
0.11332 
0.11332 
0.15111 
0.15111 
0.08386 
0.08386 
0.21639 
0.21639 
0.18031 
0.18031 
0.16454 
0.16454 
0.03881 
0.03881 
0.09712 
0.09712 
0.08240 
0.08240 
0.08675 
0.08675 
0.06384 
0.06384 
0.06496 
0.06496 
0.05284 
0.05284 
0.07195 
0.07195 
0.14251 
0.14251 
0.10553 
0.10553 
0.08284 
0.08284 
0.08335 
0.08335 
0.09413 
0.09413 
0.11484 
0.11484 
0.17486 
0.17486 
0.10775 
0.10775 
0.03961 
0.03961 
0.07887 
0.07887 
0.08405 
0.08405 
0.15526 
0.15526 
0.14664 
0.14664 
0.05509 
0.05509 
0.13096 
0.13096 
0.04661 
0.04661 
0.06071 
0.06071 
0.06139 
0.06139 
0.12269 
0.12269 
0.06728 
0.06728 
0.11494 
0.11494 
0.07559 
0.07559 
0.11134 
0.11134 
0.13432 
0.13432 
0.09494 
0.09494 
0.06028 
0.06028 
0.07666 
0.07666 
0.10122 
0.10122 
0.11370 
0.11370 
0.06100 
0.06100 
0.08915 
0.08915 
0.09715 
0.09715 
0.10675 
0.10675 
0.04149 
0.04149 
0.06936 
0.06936 
0.06614 
0.06614 
0.12089 
0.12089 
0.12272 
0.12272 
0.17162 
0.17162 
0.04890 
0.04890 
0.02495 
0.02495 
0.16369 
0.16369 
0.13070 
0.13070 
0.09447 
0.09447 
0.05309 
0.05309 
0.09701 
0.09701 
0.11816 
0.11816 
0.12088 
0.12088 
0.05230 
0.05230 
0.18097 
0.18097 
0.10175 
0.10175 
0.07765 
0.07765 
0.07487 
0.07487 
0.11933 
0.11933 
0.02460 
0.02460 
0.11923 
0.11923 
0.10311 
0.10311 
0.07204 
0.07204 
0.06431 
0.06431 
0.04840 
0.04840 
0.10726 
0.10726 
0.05609 
0.05609 
0.17134 
0.17134 
0.10557 
0.10557 
0.09500 
0.09500 
0.17223 
0.17223 
0.09488 
0.09488 
0.13907 
0.13907 
0.12100 
0.12100 
0.05822 
0.05822 
0.13529 
0.13529 
0.16715 
0.16715 
0.13751 
0.13751 
0.05826 
0.05826 
0.08163 
0.08163 
0.19693 
0.19693 
0.11239 
0.11239 
0.13843 
0.13843 
0.04272 
0.04272 
0.07573 
0.07573 
0.12135 
0.12135 
0.18045 
0.18045 
0.17287 
0.17287 
0.07066 
0.07066 
0.12271 
0.12271 
0.13524 
0.13524 
0.18214 
0.18214 
0.04789 
0.04789 
0.13476 
0.13476 
0.08892 
0.08892 
0.11032 
0.11032 
0.04892 
0.04892 
0.09100 
0.09100 
0.08898 
0.08898 
0.14526 
0.14526 
0.16278 
0.16278 
0.20145 
0.20145 
0.11412 
0.11412 
0.04329 
0.04329 
0.11988 
0.11988 
0.22952 
0.22952 
0.15621 
0.15621 
0.12824 
0.12824 
0.12154 
0.12154 
0.14302 
0.14302 
0.06939 
0.06939 
0.12438 
0.12438 
0.14626 
0.14626 
0.16261 
0.16261 
0.13411 
0.13411 
0.15688 
0.15688 
0.07253 
0.07253 
0.18161 
0.18161 
0.17432 
0.17432 
0.11891 
0.11891 
0.03512 
0.03512 
0.07552 
0.07552 
0.07862 
0.07862 
0.05776 
0.05776 
0.11807 
0.11807 
0.17625 
0.17625 
0.02625 
0.02625 
0.03586 
0.03586 
0.02928 
0.02928 
0.12961 
0.12961 
0.14452 
0.14452 
0.17218 
0.17218 
0.14012 
0.14012 
0.08286 
0.08286 
0.10730 
0.10730 
0.18459 
0.18459 
0.04783 
0.04783 
0.08917 
0.08917 
0.09410 
0.09410 
0.08756 
0.08756 
0.07275 
0.07275 
0.08854 
0.08854 
0.11946 
0.11946 
0.18854 
0.18854 
0.18904 
0.18904 
0.03534 
0.03534 
0.16568 
0.16568 
0.22227 
0.22227 
0.16451 
0.16451 
0.11057 
0.11057 
0.19911 
0.19911 
0.09651 
0.09651 
0.28190 
0.28190 
0.04265 
0.04265 
0.06188 
0.06188 
0.15586 
0.15586 
0.10075 
0.10075 
0.05584 
0.05584 
0.07438 
0.07438 
0.14053 
0.14053 
0.05404 
0.05404 
0.07353 
0.07353 
0.07030 
0.07030 
0.09117 
0.09117 
0.11694 
0.11694 
0.13929 
0.13929 
0.08074 
0.08074 
0.09036 
0.09036 
0.09676 
0.09676 
0.18144 
0.18144 
0.08658 
0.08658 
0.04793 
0.04793 
0.04162 
0.04162 
0.08887 
0.08887 
0.12893 
0.12893 
0.06072 
0.06072 
0.04320 
0.04320 
0.05116 
0.05116 
0.11897 
0.11897 
0.10635 
0.10635 
0.14641 
0.14641 
0.03199 
0.03199 
0.06827 
0.06827 
0.06391 
0.06391 
0.14052 
0.14052 
0.04982 
0.04982 
0.13483 
0.13483 
0.08562 
0.08562 
0.08333 
0.08333 
0.06909 
0.06909 
0.13773 
0.13773 
0.07699 
0.07699 
0.13393 
0.13393 
0.07076 
0.07076 
0.13417 
0.13417 
0.10044 
0.10044 
0.09949 
0.09949 
0.12270 
0.12270 
0.06864 
0.06864 
0.10352 
0.10352 
0.17769 
0.17769 
0.04381 
0.04381 
0.11613 
0.11613 
0.08134 
0.08134 
0.20557 
0.20557 
0.18088 
0.18088 
0.08535 
0.08535 
0.02682 
0.02682 
0.16977 
0.16977 
0.19534 
0.19534 
0.02788 
0.02788 
0.15849 
0.15849 
0.08109 
0.08109 
0.08746 
0.08746 
0.18160 
0.18160 
0.11440 
0.11440 
0.09452 
0.09452 
0.08927 
0.08927 
0.05350 
0.05350 
0.12849 
0.12849 
0.07536 
0.07536 
0.12498 
0.12498 
0.10315 
0.10315 
0.09650 
0.09650 
0.10564 
0.10564 
SCALARS Umean_X double 1 
LOOKUP_TABLE default
-0.05650 
-0.05650 
0.00550 
0.00550 
0.03600 
0.03600 
0.04500 
0.04500 
-0.03600 
-0.03600 
0.01750 
0.01750 
-0.00850 
-0.00850 
-0.04950 
-0.04950 
-0.09050 
-0.09050 
-0.06850 
-0.06850 
-0.06200 
-0.06200 
-0.01550 
-0.01550 
-0.06800 
-0.06800 
-0.11450 
-0.11450 
0.05250 
0.05250 
0.04400 
0.04400 
-0.02900 
-0.02900 
-0.08900 
-0.08900 
0.02350 
0.02350 
0.02500 
0.02500 
-0.05250 
-0.05250 
-0.08300 
-0.08300 
0.00300 
0.00300 
-0.03950 
-0.03950 
-0.05150 
-0.05150 
-0.03800 
-0.03800 
-0.03800 
-0.03800 
0.04300 
0.04300 
0.01550 
0.01550 
0.00750 
0.00750 
-0.02300 
-0.02300 
-0.03950 
-0.03950 
-0.07300 
-0.07300 
0.02700 
0.02700 
-0.05100 
-0.05100 
-0.11500 
-0.11500 
-0.04600 
-0.04600 
-0.03650 
-0.03650 
-0.08050 
-0.08050 
-0.00450 
-0.00450 
-0.01050 
-0.01050 
0.01900 
0.01900 
-0.02600 
-0.02600 
0.00050 
0.00050 
0.01200 
0.01200 
-0.01150 
-0.01150 
0.00350 
0.00350 
-0.01400 
-0.01400 
-0.02900 
-0.02900 
-0.00900 
-0.00900 
0.00600 
0.00600 
0.02000 
0.02000 
0.00600 
0.00600 
0.01100 
0.01100 
-0.04300 
-0.04300 
0.02550 
0.02550 
-0.00050 
-0.00050 
0.06900 
0.06900 
-0.07900 
-0.07900 
-0.00650 
-0.00650 
-0.03350 
-0.03350 
0.01600 
0.01600 
0.01100 
0.01100 
0.03450 
0.03450 
-0.05250 
-0.05250 
0.04050 
0.04050 
-0.02150 
-0.02150 
-0.06700 
-0.06700 
0.05000 
0.05000 
-0.04550 
-0.04550 
-0.00050 
-0.00050 
-0.02350 
-0.02350 
0.04950 
0.04950 
0.06400 
0.06400 
0.01300 
0.01300 
-0.02200 
-0.02200 
-0.00950 
-0.00950 
-0.00950 
-0.00950 
-0.00050 
-0.00050 
0.03050 
0.03050 
0.01900 
0.01900 
0.04650 
0.04650 
-0.00050 
-0.00050 
-0.00350 
-0.00350 
0.04950 
0.04950 
-0.09650 
-0.09650 
-0.05000 
-0.05000 
0.02400 
0.02400 
-0.06450 
-0.06450 
-0.08050 
-0.08050 
0.00700 
0.00700 
-0.03800 
-0.03800 
-0.04150 
-0.04150 
-0.02550 
-0.02550 
-0.00700 
-0.00700 
0.01200 
0.01200 
0.04800 
0.04800 
0.01500 
0.01500 
-0.03450 
-0.03450 
-0.00800 
-0.00800 
0.04550 
0.04550 
-0.02150 
-0.02150 
-0.02400 
-0.02400 
0.12800 
0.12800 
-0.03800 
-0.03800 
0.01950 
0.01950 
0.06000 
0.06000 
0.01800 
0.01800 
-0.02450 
-0.02450 
-0.00550 
-0.00550 
-0.09200 
-0.09200 
0.09950 
0.09950 
-0.03950 
-0.03950 
0.01600 
0.01600 
0.04200 
0.04200 
-0.01350 
-0.01350 
-0.00900 
-0.00900 
-0.01100 
-0.01100 
0.04500 
0.04500 
0.06300 
0.06300 
-0.05400 
-0.05400 
0.05350 
0.05350 
0.10500 
0.10500 
0.02800 
0.02800 
-0.01900 
-0.01900 
0.00800 
0.00800 
0.01350 
0.01350 
0.00950 
0.00950 
-0.03300 
-0.03300 
0.02450 
0.02450 
0.00700 
0.00700 
0.03000 
0.03000 
0.05300 
0.05300 
0.02500 
0.02500 
-0.05950 
-0.05950 
-0.07350 
-0.07350 
0.07550 
0.07550 
0.00850 
0.00850 
0.01100 
0.01100 
0.02300 
0.02300 
0.09850 
0.09850 
0.01250 
0.01250 
-0.01550 
-0.01550 
0.06650 
0.06650 
0.07350 
0.07350 
-0.08400 
-0.08400 
0.05600 
0.05600 
-0.01850 
-0.01850 
-0.05650 
-0.05650 
0.05600 
0.05600 
-0.05250 
-0.05250 
0.08450 
0.08450 
-0.08600 
-0.08600 
0.01050 
0.01050 
-0.01500 
-0.01500 
0.02250 
0.02250 
0.04500 
0.04500 
-0.03300 
-0.03300 
0.00100 
0.00100 
-0.07450 
-0.07450 
0.00150 
0.00150 
0.02450 
0.02450 
0.00850 
0.00850 
0.02150 
0.02150 
0.02750 
0.02750 
-0.02550 
-0.02550 
-0.05700 
-0.05700 
0.02850 
0.02850 
0.02250 
0.02250 
0.05250 
0.05250 
-0.03500 
-0.03500 
0.02050 
0.02050 
0.05150 
0.05150 
-0.00350 
-0.00350 
0.00850 
0.00850 
-0.06200 
-0.06200 
0.13550 
0.13550 
-0.05350 
-0.05350 
0.03900 
0.03900 
-0.06750 
-0.06750 
-0.03050 
-0.03050 
0.04800 
0.04800 
0.08850 
0.08850 
-0.03900 
-0.03900 
0.04850 
0.04850 
0.03100 
0.03100 
0.01500 
0.01500 
-0.00500 
-0.00500 
-0.01800 
-0.01800 
0.03100 
0.03100 
0.02200 
0.02200 
-0.05000 
-0.05000 
0.04100 
0.04100 
0.06150 
0.06150 
-0.05550 
-0.05550 
0.00400 
0.00400 
0.07700 
0.07700 
-0.04450 
-0.04450 
-0.06900 
-0.06900 
0.00650 
0.00650 
0.00900 
0.00900 
0.04450 
0.04450 
-0.00250 
-0.00250 
-0.00250 
-0.00250 
0.01100 
0.01100 
0.02150 
0.02150 
0.05950 
0.05950 
0.03950 
0.03950 
-0.06150 
-0.06150 
-0.07050 
-0.07050 
-0.01250 
-0.01250 
-0.17950 
-0.17950 
-0.04900 
-0.04900 
-0.05250 
-0.05250 
0.13500 
0.13500 
0.05050 
0.05050 
-0.01600 
-0.01600 
-0.03450 
-0.03450 
0.05350 
0.05350 
0.05100 
0.05100 
-0.01150 
-0.01150 
-0.04300 
-0.04300 
0.09650 
0.09650 
0.02100 
0.02100 
-0.02700 
-0.02700 
0.01300 
0.01300 
0.05950 
0.05950 
0.02850 
0.02850 
-0.00400 
-0.00400 
0.08800 
0.08800 
-0.02100 
-0.02100 
0.02650 
0.02650 
0.02200 
0.02200 
-0.05550 
-0.05550 
-0.07850 
-0.07850 
-0.03900 
-0.03900 
-0.01900 
-0.01900 
0.03550 
0.03550 
0.03600 
0.03600 
-0.02450 
-0.02450 
-0.02850 
-0.02850 
-0.04750 
-0.04750 
-0.14950 
-0.14950 
0.03350 
0.03350 
0.00750 
0.00750 
-0.03650 
-0.03650 
-0.08750 
-0.08750 
0.02000 
0.02000 
0.00450 
0.00450 
0.03500 
0.03500 
0.00600 
0.00600 
0.02900 
0.02900 
-0.05950 
-0.05950 
0.07200 
0.07200 
0.08100 
0.08100 
-0.08600 
-0.08600 
-0.04900 
-0.04900 
-0.05300 
-0.05300 
-0.05600 
-0.05600 
0.00900 
0.00900 
0.03900 
0.03900 
-0.01100 
-0.01100 
0.04300 
0.04300 
0.06750 
0.06750 
-0.03550 
-0.03550 
0.00600 
0.00600 
0.03050 
0.03050 
0.02350 
0.02350 
-0.01100 
-0.01100 
-0.01300 
-0.01300 
-0.04050 
-0.04050 
0.00350 
0.00350 
0.02600 
0.02600 
0.03950 
0.03950 
-0.11250 
-0.11250 
-0.10750 
-0.10750 
-0.08400 
-0.08400 
0.07750 
0.07750 
-0.01300 
-0.01300 
0.09350 
0.09350 
0.01600 
0.01600 
-0.05900 
-0.05900 
-0.02950 
-0.02950 
0.02850 
0.02850 
0.02000 
0.02000 
-0.00100 
-0.00100 
-0.00650 
-0.00650 
0.01300 
0.01300 
-0.04400 
-0.04400 
0.02050 
0.02050 
-0.04250 
-0.04250 
-0.04100 
-0.04100 
-0.04600 
-0.04600 
-0.03650 
-0.03650 
-0.03950 
-0.03950 
-0.09050 
-0.09050 
0.01150 
0.01150 
-0.06100 
-0.06100 
0.00600 
0.00600 
-0.00100 
-0.00100 
-0.01200 
-0.01200 
0.07950 
0.07950 
-0.01350 
-0.01350 
0.01650 
0.01650 
0.01900 
0.01900 
0.00800 
0.00800 
-0.02900 
-0.02900 
0.01950 
0.01950 
0.01950 
0.01950 
0.01950 
0.01950 
0.00100 
0.00100 
0.01750 
0.01750 
0.03900 
0.03900 
0.05800 
0.05800 
0.01400 
0.01400 
-0.00550 
-0.00550 
0.01750 
0.01750 
0.00250 
0.00250 
0.01400 
0.01400 
-0.01000 
-0.01000 
0.01750 
0.01750 
-0.05000 
-0.05000 
0.06150 
0.06150 
-0.03900 
-0.03900 
0.04900 
0.04900 
0.01750 
0.01750 
0.04650 
0.04650 
-0.10750 
-0.10750 
0.01100 
0.01100 
-0.01550 
-0.01550 
0.01150 
0.01150 
-0.05900 
-0.05900 
-0.01900 
-0.01900 
0.01200 
0.01200 
-0.02050 
-0.02050 
0.00800 
0.00800 
0.01950 
0.01950 
0.04900 
0.04900 
0.02100 
0.02100 
-0.12450 
-0.12450 
0.01250 
0.01250 
-0.00250 
-0.00250 
0.06050 
0.06050 
-0.07650 
-0.07650 
0.01800 
0.01800 
-0.04200 
-0.04200 
0.06250 
0.06250 
0.00300 
0.00300 
0.05050 
0.05050 
-0.02000 
-0.02000 
-0.02800 
-0.02800 
-0.04050 
-0.04050 
0.07650 
0.07650 
-0.00050 
-0.00050 
0.01000 
0.01000 
-0.02250 
-0.02250 
-0.05050 
-0.05050 
0.04600 
0.04600 
0.06200 
0.06200 
-0.00300 
-0.00300 
-0.02100 
-0.02100 
0.13550 
0.13550 
0.04300 
0.04300 
0.00200 
0.00200 
0.03600 
0.03600 
0.01750 
0.01750 
-0.01000 
-0.01000 
0.08400 
0.08400 
-0.01700 
-0.01700 
0.00700 
0.00700 
-0.01300 
-0.01300 
0.11600 
0.11600 
0.06900 
0.06900 
-0.01550 
-0.01550 
0.04450 
0.04450 
-0.03150 
-0.03150 
0.04000 
0.04000 
-0.02300 
-0.02300 
-0.05000 
-0.05000 
-0.00200 
-0.00200 
-0.07500 
-0.07500 
-0.04700 
-0.04700 
-0.02350 
-0.02350 
0.03750 
0.03750 
0.08700 
0.08700 
0.02200 
0.02200 
0.05950 
0.05950 
0.04350 
0.04350 
-0.01700 
-0.01700 
-0.01900 
-0.01900 
0.14950 
0.14950 
0.07100 
0.07100 
-0.00150 
-0.00150 
-0.08650 
-0.08650 
0.00250 
0.00250 
0.04350 
0.04350 
-0.03700 
-0.03700 
0.09550 
0.09550 
-0.13350 
-0.13350 
-0.05550 
-0.05550 
0.09900 
0.09900 
-0.02100 
-0.02100 
0.03150 
0.03150 
0.04250 
0.04250 
-0.02450 
-0.02450 
0.01750 
0.01750 
-0.06650 
-0.06650 
0.06150 
0.06150 
0.00050 
0.00050 
0.02250 
0.02250 
0.06300 
0.06300 
0.00850 
0.00850 
0.00600 
0.00600 
-0.02600 
-0.02600 
0.08900 
0.08900 
-0.05500 
-0.05500 
0.06200 
0.06200 
0.01050 
0.01050 
-0.01600 
-0.01600 
0.08750 
0.08750 
0.07100 
0.07100 
-0.03900 
-0.03900 
-0.04350 
-0.04350 
-0.02850 
-0.02850 
-0.01900 
-0.01900 
0.03650 
0.03650 
-0.01650 
-0.01650 
0.04850 
0.04850 
0.03950 
0.03950 
0.10750 
0.10750 
0.03300 
0.03300 
0.11350 
0.11350 
0.18800 
0.18800 
0.00950 
0.00950 
0.03300 
0.03300 
0.16000 
0.16000 
0.07500 
0.07500 
0.21250 
0.21250 
0.00250 
0.00250 
-0.05200 
-0.05200 
0.01600 
0.01600 
0.07850 
0.07850 
-0.04350 
-0.04350 
0.03850 
0.03850 
-0.04400 
-0.04400 
0.02150 
0.02150 
0.05850 
0.05850 
-0.00850 
-0.00850 
-0.00700 
-0.00700 
-0.09100 
-0.09100 
0.02550 
0.02550 
-0.01350 
-0.01350 
-0.00650 
-0.00650 
0.00550 
0.00550 
0.02150 
0.02150 
-0.00350 
-0.00350 
-0.00000 
-0.00000 
-0.03000 
-0.03000 
-0.08850 
-0.08850 
-0.05800 
-0.05800 
-0.04100 
-0.04100 
-0.00100 
-0.00100 
-0.00500 
-0.00500 
-0.03150 
-0.03150 
-0.02550 
-0.02550 
0.09500 
0.09500 
-0.01300 
-0.01300 
0.01400 
0.01400 
-0.02400 
-0.02400 
0.01750 
0.01750 
0.02600 
0.02600 
0.08300 
0.08300 
0.03600 
0.03600 
-0.05850 
-0.05850 
0.03150 
0.03150 
0.03950 
0.03950 
-0.02250 
-0.02250 
-0.01100 
-0.01100 
-0.06150 
-0.06150 
0.03050 
0.03050 
0.00450 
0.00450 
0.01500 
0.01500 
-0.02700 
-0.02700 
-0.04300 
-0.04300 
-0.06750 
-0.06750 
0.08500 
0.08500 
0.01750 
0.01750 
0.05100 
0.05100 
-0.04000 
-0.04000 
0.11800 
0.11800 
0.05600 
0.05600 
0.00850 
0.00850 
0.00450 
0.00450 
-0.03250 
-0.03250 
-0.11200 
-0.11200 
0.02350 
0.02350 
0.01100 
0.01100 
-0.05750 
-0.05750 
0.04400 
0.04400 
0.11650 
0.11650 
-0.10250 
-0.10250 
0.00050 
0.00050 
0.02500 
0.02500 
-0.01600 
-0.01600 
-0.05850 
-0.05850 
-0.06250 
-0.06250 
0.09100 
0.09100 
-0.07050 
-0.07050 
-0.00300 
-0.00300 
-0.09000 
-0.09000 
SCALARS Umean_Y double 1 
LOOKUP_TABLE default
0.00350 
0.00350 
-0.02600 
-0.02600 
0.03450 
0.03450 
0.12000 
0.12000 
0.09400 
0.09400 
0.03700 
0.03700 
-0.02100 
-0.02100 
0.04600 
0.04600 
0.01150 
0.01150 
0.02650 
0.02650 
0.00250 
0.00250 
0.02000 
0.02000 
0.06300 
0.06300 
0.05350 
0.05350 
0.10150 
0.10150 
-0.01400 
-0.01400 
-0.00150 
-0.00150 
0.05600 
0.05600 
0.00550 
0.00550 
0.02450 
0.02450 
0.07550 
0.07550 
0.03500 
0.03500 
0.00900 
0.00900 
0.00550 
0.00550 
0.02150 
0.02150 
0.00100 
0.00100 
0.05300 
0.05300 
0.04450 
0.04450 
0.02500 
0.02500 
-0.01200 
-0.01200 
-0.02150 
-0.02150 
0.06050 
0.06050 
0.05400 
0.05400 
0.05850 
0.05850 
0.01400 
0.01400 
-0.00150 
-0.00150 
-0.00900 
-0.00900 
0.04050 
0.04050 
0.06250 
0.06250 
0.01800 
0.01800 
0.03000 
0.03000 
-0.00150 
-0.00150 
0.13400 
0.13400 
0.00500 
0.00500 
0.07900 
0.07900 
0.02600 
0.02600 
0.06600 
0.06600 
0.09850 
0.09850 
0.02800 
0.02800 
0.03200 
0.03200 
-0.03900 
-0.03900 
0.04050 
0.04050 
0.09050 
0.09050 
0.04300 
0.04300 