# vtk DataFile Version 2.1 
Trajects from timestep 149 with color option 
ASCII 
 
DATASET POLYDATA POINTS 1012 float 
2.086 3.727 -70.927 
2.111 3.971 -71.374 
3.698 4.808 -71.071 
3.790 5.036 -71.223 
-12.568 -3.405 -73.693 
-12.586 -3.219 -73.881 
-7.000 4.721 -71.560 
-6.964 4.964 -71.932 
4.200 1.424 -72.269 
4.296 1.549 -72.573 
7.491 7.643 -68.906 
7.564 7.642 -69.024 
-0.708 6.521 -68.191 
-0.664 6.691 -68.263 
1.605 5.607 -70.127 
1.632 5.615 -70.232 
13.538 0.172 -71.107 
13.740 0.399 -71.173 
3.496 4.660 -68.168 
3.613 4.886 -68.472 
2.620 12.308 -71.537 
2.429 12.421 -71.527 
5.499 -4.291 -77.100 
5.664 -4.228 -77.238 
-3.924 6.243 -67.180 
-3.976 6.380 -67.214 
-14.691 -0.858 -76.528 
-14.533 -0.616 -76.699 
-8.499 6.297 -69.858 
-8.549 6.539 -70.184 
0.344 9.160 -71.174 
0.437 9.330 -71.151 
-7.982 4.304 -69.795 
-7.877 4.558 -70.130 
6.734 2.814 -69.195 
7.016 2.964 -69.538 
-11.356 -3.408 -73.692 
-11.332 -3.216 -73.877 
-2.145 0.305 -73.236 
-1.856 0.550 -73.594 
3.233 -0.074 -72.439 
3.396 0.089 -72.772 
7.467 10.146 -71.523 
7.552 10.205 -71.639 
-11.170 6.637 -68.405 
-11.185 6.768 -68.671 
-9.928 3.603 -67.790 
-9.836 3.829 -68.061 
4.438 -1.736 -73.947 
4.602 -1.686 -74.233 
2.170 -0.902 -69.778 
2.417 -0.699 -69.974 
15.261 3.070 -70.814 
15.279 3.243 -70.914 
0.364 10.688 -68.657 
0.251 10.800 -68.558 
12.554 9.359 -71.932 
12.769 9.601 -72.150 
-1.525 -5.419 -69.748 
-1.480 -5.167 -69.924 
-8.892 -2.186 -66.712 
-8.755 -1.832 -67.100 
4.012 -9.404 -68.449 
4.206 -9.331 -68.579 
12.300 0.199 -67.668 
12.217 0.386 -67.796 
-6.751 6.545 -69.556 
-6.731 6.720 -69.890 
3.395 -10.999 -71.940 
3.516 -10.881 -72.115 
5.257 3.473 -71.323 
5.374 3.523 -71.618 
-0.243 2.880 -69.300 
-0.113 3.063 -69.694 
-10.462 9.822 -68.479 
-10.338 9.974 -68.538 
-5.603 10.355 -64.901 
-5.692 10.476 -64.832 
-14.836 -7.578 -71.753 
-14.659 -7.389 -71.838 
-7.876 -6.204 -68.469 
-7.681 -5.990 -68.727 
-8.513 11.371 -64.586 
-8.548 11.596 -64.638 
-0.509 1.316 -63.766 
-0.392 1.566 -63.988 
-2.685 4.121 -67.822 
-2.465 4.260 -68.143 
-9.152 9.264 -74.260 
-9.087 9.552 -74.294 
11.284 -2.977 -67.637 
11.485 -2.834 -67.840 
1.075 5.520 -73.826 
1.143 5.761 -74.036 
-8.095 -0.740 -66.847 
-7.909 -0.416 -67.100 
4.624 -1.389 -68.138 
4.867 -1.174 -68.472 
-0.273 -1.996 -71.874 
-0.125 -1.963 -72.053 
0.338 2.979 -67.664 
0.476 3.154 -67.994 
-14.877 -6.384 -71.409 
-14.686 -6.107 -71.735 
-4.382 9.482 -64.900 
-4.475 9.646 -64.929 
-3.598 0.653 -66.425 
-3.477 0.894 -66.658 
15.824 1.333 -68.250 
15.939 1.552 -68.110 
1.310 -10.439 -64.974 
1.475 -10.243 -64.892 
-4.695 -2.906 -71.599 
-4.492 -2.599 -71.778 
-15.776 -0.083 -72.600 
-15.847 0.141 -72.751 
13.711 7.675 -68.819 
13.746 7.845 -69.025 
13.899 2.213 -70.245 
13.894 2.512 -70.338 
-1.597 11.360 -69.177 
-1.646 11.656 -69.094 
-11.953 -7.320 -71.118 
-11.931 -7.255 -71.194 
-14.173 -2.324 -76.539 
-14.151 -2.133 -76.630 
5.565 -3.347 -71.064 
5.702 -3.158 -71.611 
-4.464 10.975 -69.514 
-4.535 11.097 -69.478 
-6.581 10.986 -63.383 
-6.703 11.245 -63.321 
-0.141 -4.056 -68.102 
0.094 -3.826 -68.317 
-13.288 2.028 -74.615 
-13.234 2.172 -74.898 
-0.004 -7.483 -68.413 
0.176 -7.394 -68.730 
-7.631 7.391 -68.638 
-7.675 7.565 -68.886 
-0.858 -4.055 -71.472 
-0.636 -3.934 -71.639 
3.226 -10.057 -62.557 
3.234 -9.986 -62.577 
-0.600 7.140 -69.427 
-0.541 7.385 -69.408 
-1.592 12.521 -70.164 
-1.690 12.726 -70.146 
-9.196 1.405 -72.508 
-8.993 1.601 -72.749 
-5.149 5.159 -66.271 
-5.097 5.328 -66.506 
0.945 7.990 -72.475 
0.979 8.178 -72.577 
-0.470 9.524 -71.995 
-0.465 9.673 -72.028 
9.382 -0.739 -68.371 
9.479 -0.733 -68.564 
3.074 -8.551 -74.727 
3.197 -8.494 -74.879 
4.133 -1.292 -65.209 
4.317 -1.213 -65.440 
5.412 -5.768 -64.461 
5.536 -5.636 -64.784 
-0.439 4.548 -63.897 
-0.290 4.651 -64.215 
10.223 -12.671 -66.349 
10.225 -12.678 -66.548 
3.295 -8.397 -64.507 
3.336 -8.337 -64.657 
5.360 -0.695 -65.441 
5.454 -0.542 -65.864 
-6.174 -9.391 -69.417 
-6.109 -9.200 -69.641 
3.339 -2.943 -64.611 
3.511 -2.959 -64.884 
2.851 12.802 -63.247 
2.747 12.956 -62.976 
-8.058 2.811 -68.362 
-7.889 3.091 -68.554 
7.686 1.480 -67.341 
7.858 1.638 -67.663 
15.747 2.794 -69.387 
15.785 2.953 -69.432 
2.905 3.276 -72.578 
2.963 3.538 -72.767 
10.065 9.399 -67.529 
10.065 9.418 -67.584 
-7.438 -12.494 -67.066 
-7.376 -12.401 -67.142 
12.693 4.058 -67.646 
12.704 4.218 -67.710 
3.549 -11.038 -69.374 
3.645 -10.946 -69.461 
11.454 12.692 -69.437 
11.476 12.408 -69.338 
3.130 8.562 -69.777 
3.086 8.627 -69.711 
4.830 7.406 -63.099 
5.018 7.595 -63.185 
-5.611 9.307 -62.115 
-5.613 9.566 -62.092 
-4.589 0.576 -68.672 
-4.362 0.901 -69.020 
2.173 5.499 -64.720 
2.318 5.648 -64.905 
3.328 5.405 -64.767 
3.485 5.605 -65.034 
-3.314 2.176 -64.295 
-3.073 2.432 -64.748 
3.351 -1.807 -65.609 
3.486 -1.673 -65.819 
-12.034 2.806 -65.911 
-11.831 2.957 -66.056 
-1.222 10.608 -62.953 
-1.322 10.657 -62.786 
2.098 -9.927 -69.309 
2.242 -9.852 -69.321 
-10.164 10.549 -76.642 
-10.158 10.758 -76.808 
-7.306 12.607 -68.344 
-7.368 12.722 -68.313 
-0.964 7.307 -72.773 
-0.897 7.552 -72.779 
-8.103 7.625 -64.767 
-8.165 7.761 -64.918 
3.569 -11.378 -64.343 
3.636 -11.272 -64.233 
-5.981 -3.938 -65.157 
-5.801 -3.789 -65.680 
-11.490 -10.527 -69.354 
-11.177 -10.319 -69.524 
0.352 6.472 -61.386 
0.596 6.651 -61.520 
-0.852 -6.485 -68.133 
-0.649 -6.344 -68.483 
-4.917 -1.950 -62.665 
-4.665 -1.779 -63.046 
10.511 -1.066 -73.178 
10.903 -1.031 -73.411 
-9.431 11.171 -62.932 
-9.529 11.397 -62.941 
4.246 8.508 -69.582 
4.243 8.519 -69.586 
4.274 1.527 -64.084 
4.295 1.754 -64.550 
13.137 2.053 -66.927 
13.180 2.242 -67.038 
10.161 -1.957 -65.694 
10.309 -1.979 -65.937 
-2.948 -11.948 -69.797 
-2.823 -11.892 -69.883 
7.733 -5.843 -70.802 
7.988 -5.741 -71.211 
2.717 -5.863 -65.591 
2.869 -5.864 -66.019 
-10.648 13.302 -65.144 
-10.736 13.507 -64.940 
12.839 3.960 -66.087 
12.956 4.108 -66.198 
10.167 4.883 -75.476 
10.333 4.975 -75.755 
2.000 -7.220 -63.149 
2.016 -7.134 -63.578 
11.912 -3.598 -68.281 
12.077 -3.490 -68.507 
1.366 5.918 -63.781 
1.454 6.100 -63.955 
-2.593 5.148 -65.511 
-2.429 5.311 -65.754 
0.264 -1.072 -69.701 
0.538 -0.943 -69.732 
12.622 -4.275 -68.343 
12.835 -4.157 -68.610 
2.967 5.014 -64.468 
3.042 5.112 -64.780 
4.732 10.708 -68.358 
4.675 10.721 -68.232 
-1.236 -5.236 -66.479 
-1.007 -5.070 -67.052 
-5.778 -11.678 -65.963 
-5.603 -11.651 -66.113 
1.585 -11.611 -71.640 
1.729 -11.511 -71.755 
7.360 2.624 -64.005 
7.491 2.643 -64.250 
-9.940 -3.014 -68.604 
-9.874 -2.956 -68.851 
-0.861 -11.516 -74.450 
-0.494 -11.406 -74.604 
4.437 10.618 -62.528 
4.323 10.706 -62.497 
-8.302 -10.206 -68.135 
-8.329 -10.030 -68.275 
-3.559 -0.193 -72.493 
-3.341 0.049 -72.813 
9.401 -12.969 -67.426 
9.509 -12.991 -67.589 
9.099 -9.426 -71.592 
9.291 -9.483 -71.813 
-0.759 11.741 -70.600 
-0.853 11.912 -70.607 
2.317 7.820 -66.142 
2.295 7.790 -66.268 
3.119 -6.521 -71.373 
3.259 -6.474 -71.638 
4.486 -1.758 -64.324 
4.613 -1.767 -64.765 
-1.314 8.828 -72.805 
-1.452 9.107 -72.828 
-2.131 11.052 -75.328 
-2.099 11.318 -75.540 
9.455 9.985 -71.786 
9.612 10.068 -72.017 
3.061 10.544 -68.257 
3.011 10.565 -68.181 
-2.958 -2.922 -74.960 
-2.902 -2.848 -75.226 
-8.088 3.708 -73.114 
-8.074 4.022 -73.445 
-8.751 7.830 -70.555 
-8.732 8.058 -70.762 
7.071 1.680 -63.829 
7.097 1.750 -64.155 
13.893 6.389 -74.312 
14.017 6.448 -74.512 
3.243 -2.975 -68.168 
3.482 -2.729 -68.435 
-12.700 0.573 -77.613 
-12.569 0.763 -77.643 
-10.546 6.466 -73.249 
-10.480 6.792 -73.515 
2.206 4.259 -65.579 
2.385 4.442 -65.867 
-12.945 5.274 -75.620 
-12.963 5.620 -75.897 
-5.615 3.692 -62.380 
-5.346 3.933 -62.327 
7.263 2.727 -73.333 
7.354 2.868 -73.603 
-4.172 1.291 -73.895 
-3.984 1.480 -74.180 
-13.540 -5.940 -70.511 
-13.529 -5.705 -70.556 
7.984 6.450 -63.286 
8.145 6.578 -63.391 
2.056 6.863 -73.056 
2.253 7.024 -73.145 
-14.232 -7.686 -72.735 
-14.137 -7.511 -72.927 
3.643 7.491 -63.550 
3.857 7.549 -63.745 
-11.166 -1.086 -64.944 
-10.982 -0.865 -65.036 
0.479 -5.936 -75.380 
0.652 -5.818 -75.460 
-8.496 -4.021 -66.198 
-8.279 -3.722 -66.695 
1.620 -5.581 -66.769 
2.109 -5.322 -67.027 
11.166 -11.264 -70.045 
11.317 -11.340 -70.209 
-5.295 -6.570 -71.889 
-5.108 -6.469 -72.179 
2.273 12.252 -64.762 
2.163 12.400 -64.686 
8.806 -10.001 -72.784 
9.028 -9.988 -72.988 
14.271 0.336 -67.458 
14.231 0.530 -67.541 
-1.124 0.309 -67.510 
-1.107 0.585 -67.846 
6.015 -7.705 -69.789 
6.212 -7.644 -69.907 
5.291 0.130 -72.696 
5.509 0.327 -73.098 
-3.317 7.878 -64.560 
-3.426 8.017 -64.645 
-2.938 -0.711 -65.225 
-2.915 -0.400 -65.394 
-3.401 11.592 -70.586 
-3.481 11.698 -70.564 
16.681 -1.349 -68.650 
16.665 -1.139 -68.675 
-1.391 7.882 -66.003 
-1.491 7.975 -66.016 
6.828 -0.073 -62.337 
6.877 0.090 -62.694 
-6.927 -3.016 -72.749 
-6.852 -2.928 -72.857 
10.774 -1.703 -70.573 
11.025 -1.630 -70.922 
9.053 5.885 -62.920 
9.172 5.979 -62.839 
-10.760 -8.990 -72.792 
-10.618 -8.908 -72.918 
-12.799 7.119 -73.897 
-12.820 7.449 -74.120 
8.381 9.908 -61.388 
8.386 10.012 -61.307 
-2.736 -7.866 -66.593 
-2.738 -7.583 -67.044 
6.463 7.412 -73.546 
6.598 7.468 -73.738 
-13.996 6.802 -71.694 
-13.914 7.119 -71.973 
-7.721 -6.245 -73.017 
-7.588 -6.030 -73.292 
-0.174 11.743 -73.330 
-0.323 11.864 -73.335 
9.152 2.291 -61.909 
9.191 2.371 -61.906 
-11.694 12.620 -68.761 
-11.615 12.827 -68.719 
1.356 -0.146 -63.479 
1.545 -0.022 -63.453 
-10.431 -9.050 -70.915 
-10.307 -8.924 -70.939 
-1.748 -8.467 -58.884 
-1.931 -8.333 -59.256 
15.379 -7.778 -69.288 
15.442 -7.730 -69.381 
5.108 -9.736 -71.383 
5.305 -9.681 -71.534 
-15.640 2.024 -75.338 
-15.665 2.209 -75.605 
10.588 1.620 -64.803 
10.593 1.679 -64.885 
-6.036 -7.558 -68.198 
-5.813 -7.532 -68.691 
0.076 -8.295 -68.059 
0.208 -8.249 -68.349 
12.863 -5.510 -69.508 
12.906 -5.402 -69.745 
7.218 -9.998 -67.404 
7.406 -10.035 -67.453 
-9.481 -0.074 -75.061 
-9.453 0.064 -75.239 
-7.523 9.991 -76.943 
-7.511 10.162 -77.082 
-0.958 -1.755 -71.843 
-0.761 -1.651 -72.246 
[...]
POINT_DATA 1012 
SCALARS Umean double 1 
LOOKUP_TABLE default
0.25494 
0.25494 
0.14453 
0.14453 
0.13254 
0.13254 
0.22290 
0.22290 
0.17121 
0.17121 
0.06938 
0.06938 
0.09489 
0.09489 
0.05436 
0.05436 
0.15547 
0.15547 
0.19823 
0.19823 
0.11107 
0.11107 
0.11207 
0.11207 
0.07521 
0.07521 
0.16791 
0.16791 
0.20454 
0.20454 
0.09757 
0.09757 
0.21666 
0.21666 
0.23435 
0.23435 
0.13385 
0.13385 
0.26063 
0.26063 
0.20250 
0.20250 
0.07772 
0.07772 
0.14844 
0.14844 
0.18233 
0.18233 
0.16673 
0.16673 
0.18751 
0.18751 
0.10032 
0.10032 
0.09369 
0.09369 
0.19514 
0.19514 
0.15533 
0.15533 
0.27140 
0.27140 
0.12234 
0.12234 
0.12067 
0.12067 
0.18880 
0.18880 
0.12164 
0.12164 
0.16063 
0.16063 
0.22673 
0.22673 
0.10242 
0.10242 
0.08265 
0.08265 
0.13627 
0.13627 
0.19390 
0.19390 
0.11678 
0.11678 
0.17711 
0.17711 
0.20662 
0.20662 
0.14860 
0.14860 
0.15973 
0.15973 
0.16341 
0.16341 
0.22560 
0.22560 
0.23283 
0.23283 
0.11730 
0.11730 
0.19910 
0.19910 
0.23425 
0.23425 
0.09538 
0.09538 
0.17819 
0.17819 
0.14211 
0.14211 
0.13450 
0.13450 
0.20463 
0.20463 
0.13966 
0.13966 
0.13469 
0.13469 
0.15658 
0.15658 
0.15565 
0.15565 
0.05120 
0.05120 
0.10636 
0.10636 
0.29736 
0.29736 
0.07284 
0.07284 
0.14647 
0.14647 
0.19644 
0.19644 
0.16104 
0.16104 
0.18762 
0.18762 
0.15307 
0.15307 
0.15150 
0.15150 
0.03710 
0.03710 
0.12636 
0.12636 
0.11397 
0.11397 
0.18554 
0.18554 
0.14705 
0.14705 
0.10829 
0.10829 
0.07635 
0.07635 
0.10804 
0.10804 
0.10184 
0.10184 
0.15285 
0.15285 
0.18515 
0.18515 
0.18298 
0.18298 
0.09957 
0.09957 
0.08334 
0.08334 
0.22977 
0.22977 
0.15073 
0.15073 
0.16153 
0.16153 
0.16430 
0.16430 
0.18962 
0.18962 
0.19889 
0.19889 
0.08478 
0.08478 
0.16411 
0.16411 
0.02909 
0.02909 
0.06758 
0.06758 
0.08634 
0.08634 
0.07945 
0.07945 
0.15078 
0.15078 
0.05128 
0.05128 
0.14005 
0.14005 
0.13001 
0.13001 
0.26375 
0.26375 
0.13915 
0.13915 
0.18435 
0.18435 
0.28672 
0.28672 
0.14167 
0.14167 
0.14580 
0.14580 
0.10036 
0.10036 
0.08140 
0.08140 
0.13349 
0.13349 
0.06714 
0.06714 
0.12703 
0.12703 
0.10623 
0.10623 
0.08340 
0.08340 
0.28641 
0.28641 
0.20624 
0.20624 
0.16548 
0.16548 
0.21424 
0.21424 
0.24388 
0.24388 
0.22868 
0.22868 
0.12325 
0.12325 
0.00604 
0.00604 
0.25939 
0.25939 
0.11168 
0.11168 
0.14269 
0.14269 
0.08087 
0.08087 
0.24633 
0.24633 
0.22710 
0.22710 
0.15115 
0.15115 
0.10945 
0.10945 
0.16872 
0.16872 
0.21891 
0.21891 
0.14997 
0.14997 
0.13336 
0.13336 
0.16772 
0.16772 
0.15222 
0.15222 
0.18068 
0.18068 
0.16776 
0.16776 
0.06945 
0.06945 
0.31950 
0.31950 
0.11603 
0.11603 
0.10483 
0.10483 
0.13924 
0.13924 
0.13108 
0.13108 
0.20646 
0.20646 
0.07366 
0.07366 
0.11325 
0.11325 
0.22830 
0.22830 
0.09838 
0.09838 
0.14913 
0.14913 
0.09763 
0.09763 
0.06569 
0.06569 
0.15169 
0.15169 
0.22951 
0.22951 
0.15606 
0.15606 
0.17082 
0.17082 
0.14569 
0.14569 
0.04668 
0.04668 
0.14086 
0.14086 
0.22823 
0.22823 
0.15427 
0.15427 
0.16722 
0.16722 
0.12130 
0.12130 
0.21733 
0.21733 
0.11636 
0.11636 
0.21295 
0.21295 
0.19266 
0.19266 
0.22179 
0.22179 
0.18252 
0.18252 
0.15895 
0.15895 
0.19512 
0.19512 
0.11976 
0.11976 
0.11547 
0.11547 
0.13477 
0.13477 
0.13831 
0.13831 
0.14764 
0.14764 
0.15096 
0.15096 
0.11209 
0.11209 
0.30964 
0.30964 
0.30527 
0.30527 
0.11776 
0.11776 
0.17977 
0.17977 
0.09972 
0.09972 
0.15089 
0.15089 
0.10738 
0.10738 
0.21758 
0.21758 
0.11880 
0.11880 
0.24897 
0.24897 
0.09801 
0.09801 
0.17735 
0.17735 
0.06731 
0.06731 
0.10604 
0.10604 
0.06859 
0.06859 
0.19775 
0.19775 
0.07911 
0.07911 
0.21802 
0.21802 
0.08596 
0.08596 
0.10340 
0.10340 
0.19942 
0.19942 
0.06596 
0.06596 
0.26622 
0.26622 
0.12065 
0.12065 
0.21509 
0.21509 
0.18677 
0.18677 
0.09600 
0.09600 
0.04453 
0.04453 
0.11275 
0.11275 
0.11377 
0.11377 
0.08920 
0.08920 
0.21785 
0.21785 
0.06108 
0.06108 
0.12712 
0.12712 
0.16289 
0.16289 
0.05057 
0.05057 
0.27086 
0.27086 
0.16097 
0.16097 
0.13199 
0.13199 
0.09889 
0.09889 
0.11348 
0.11348 
0.11035 
0.11035 
0.23024 
0.23024 
0.13690 
0.13690 
0.10570 
0.10570 
0.14821 
0.14821 
0.19711 
0.19711 
0.25910 
0.25910 
0.19197 
0.19197 
0.08384 
0.08384 
0.09658 
0.09658 
0.17690 
0.17690 
0.17046 
0.17046 
0.18345 
0.18345 
0.23292 
0.23292 
0.17645 
0.17645 
0.08636 
0.08636 
0.28764 
0.28764 
0.08274 
0.08274 
0.10782 
0.10782 
0.19418 
0.19418 
0.20524 
0.20524 
0.11343 
0.11343 
0.08850 
0.08850 
0.13688 
0.13688 
0.21044 
0.21044 
0.14506 
0.14506 
0.14306 
0.14306 
0.14833 
0.14833 
0.15032 
0.15032 
0.13199 
0.13199 
0.06797 
0.06797 
0.22114 
0.22114 
0.11703 
0.11703 
0.11508 
0.11508 
0.07953 
0.07953 
0.18555 
0.18555 
0.22594 
0.22594 
0.25842 
0.25842 
0.11513 
0.11513 
0.21998 
0.21998 
0.15374 
0.15374 
0.07296 
0.07296 
0.16635 
0.16635 
0.15909 
0.15909 
0.08375 
0.08375 
0.26773 
0.26773 
0.15575 
0.15575 
0.16197 
0.16197 
0.19124 
0.19124 
0.11821 
0.11821 
0.15408 
0.15408 
0.16374 
0.16374 
0.28904 
0.28904 
0.21036 
0.21036 
0.11700 
0.11700 
0.05812 
0.05812 
0.25045 
0.25045 
0.11502 
0.11502 
0.15678 
0.15678 
0.13695 
0.13695 
0.13617 
0.13617 
0.11698 
0.11698 
0.13355 
0.13355 
0.19235 
0.19235 
0.04143 
0.04143 
0.13885 
0.13885 
0.17166 
0.17166 
0.12518 
0.12518 
0.05574 
0.05574 
0.13017 
0.13017 
0.13229 
0.13229 
0.25340 
0.25340 
0.19134 
0.19134 
0.18403 
0.18403 
0.17933 
0.17933 
0.22070 
0.22070 
0.17079 
0.17079 
0.22313 
0.22313 
0.16173 
0.16173 
0.27837 
0.27837 
0.08713 
0.08713 
0.10928 
0.10928 
0.08399 
0.08399 
0.08976 
0.08976 
0.06595 
0.06595 
0.08814 
0.08814 
0.16415 
0.16415 
0.27452 
0.27452 
0.21179 
0.21179 
0.12004 
0.12004 
0.22686 
0.22686 
0.21539 
0.21539 
0.11899 
0.11899 
0.17115 
0.17115 
0.34640 
0.34640 
0.13118 
0.13118 
0.10480 
0.10480 
0.11820 
0.11820 
0.13843 
0.13843 
0.20746 
0.20746 
0.12757 
0.12757 
0.09776 
0.09776 
0.13030 
0.13030 
0.05779 
0.05779 
0.13897 
0.13897 
0.07153 
0.07153 
0.13035 
0.13035 
0.13747 
0.13747 
0.17181 
0.17181 
0.19380 
0.19380 
0.18533 
0.18533 
0.18463 
0.18463 
0.28674 
0.28674 
0.13833 
0.13833 
0.11475 
0.11475 
0.11223 
0.11223 
0.11336 
0.11336 
0.10548 
0.10548 
0.15154 
0.15154 
0.23836 
0.23836 
0.07009 
0.07009 
0.13301 
0.13301 
0.19356 
0.19356 
0.14789 
0.14789 
0.23423 
0.23423 
0.18958 
0.18958 
0.19308 
0.19308 
0.16050 
0.16050 
0.18056 
0.18056 
0.11089 
0.11089 
0.10712 
0.10712 
0.19751 
0.19751 
0.17787 
0.17787 
0.22259 
0.22259 
0.16396 
0.16396 
0.08404 
0.08404 
0.23926 
0.23926 
0.13526 
0.13526 
0.09693 
0.09693 
0.31922 
0.31922 
0.17029 
0.17029 
0.07831 
0.07831 
0.14230 
0.14230 
0.07916 
0.07916 
0.34575 
0.34575 
0.23477 
0.23477 
0.20398 
0.20398 
0.14037 
0.14037 
0.10922 
0.10922 
0.18308 
0.18308 
0.11805 
0.11805 
0.09563 
0.09563 
0.16956 
0.16956 
0.12841 
0.12841 
0.09627 
0.09627 
0.13467 
0.13467 
0.17984 
0.17984 
0.04825 
0.04825 
0.17397 
0.17397 
0.14242 
0.14242 
0.14240 
0.14240 
0.10458 
0.10458 
0.09507 
0.09507 
0.13821 
0.13821 
0.07015 
0.07015 
0.14818 
0.14818 
0.19908 
0.19908 
0.07830 
0.07830 
0.12527 
0.12527 
0.17310 
0.17310 
0.17766 
0.17766 
0.15583 
0.15583 
0.12937 
0.12937 
0.17334 
0.17334 
0.11246 
0.11246 
0.21009 
0.21009 
0.18241 
0.18241 
0.12832 
0.12832 
0.07138 
0.07138 
0.17637 
0.17637 
0.23147 
0.23147 
0.09734 
0.09734 
0.26274 
0.26274 
0.04481 
0.04481 
0.17623 
0.17623 
0.16362 
0.16362 
0.08528 
0.08528 
0.26315 
0.26315 
0.33637 
0.33637 
0.14566 
0.14566 
0.12339 
0.12339 
0.07250 
0.07250 
0.08514 
0.08514 
0.09814 
0.09814 
0.26961 
0.26961 
0.05528 
0.05528 
0.12687 
0.12687 
0.19695 
0.19695 
0.26380 
0.26380 
0.10584 
0.10584 
0.11267 
0.11267 
0.11108 
0.11108 
0.28333 
0.28333 
0.15600 
0.15600 
0.04364 
0.04364 
0.11959 
0.11959 
0.13525 
0.13525 
0.12707 
0.12707 
0.17766 
0.17766 
0.11815 
0.11815 
0.04674 
0.04674 
0.21080 
0.21080 
0.25386 
0.25386 
0.06984 
0.06984 
0.25061 
0.25061 
0.18025 
0.18025 
0.15943 
0.15943 
0.06589 
0.06589 
0.03331 
0.03331 
0.11881 
0.11881 
0.10220 
0.10220 
0.21880 
0.21880 
0.23460 
0.23460 
0.11755 
0.11755 
0.14313 
0.14313 
0.09379 
0.09379 
0.19152 
0.19152 
0.11144 
0.11144 
0.11749 
0.11749 
0.18601 
0.18601 
0.10156 
0.10156 
0.19587 
0.19587 
0.11748 
0.11748 
0.07979 
0.07979 
0.18663 
0.18663 
0.33525 
0.33525 
0.15958 
0.15958 
0.21318 
0.21318 
0.11431 
0.11431 
0.09167 
0.09167 
0.15600 
0.15600 
0.20444 
0.20444 
0.07637 
0.07637 
0.08150 
0.08150 
0.09392 
0.09392 
0.17518 
0.17518 
0.06323 
0.06323 
0.13091 
0.13091 
0.09848 
0.09848 
0.13373 
0.13373 
0.20035 
0.20035 
0.17192 
0.17192 
0.07321 
0.07321 
0.04111 
0.04111 
0.15663 
0.15663 
0.18101 
0.18101 
0.11750 
0.11750 
0.14018 
0.14018 
0.12843 
0.12843 
0.13299 
0.13299 
0.10963 
0.10963 
0.16000 
0.16000 
0.13537 
0.13537 
0.22889 
0.22889 
0.16731 
0.16731 
0.16346 
0.16346 
0.27566 
0.27566 
0.21766 
0.21766 
0.09671 
0.09671 
0.07922 
0.07922 
0.11121 
0.11121 
0.19406 
0.19406 
0.09875 
0.09875 
0.14754 
0.14754 
0.24262 
0.24262 
0.21509 
0.21509 
0.08005 
0.08005 
0.26703 
0.26703 
0.20305 
0.20305 
0.22595 
0.22595 
0.16847 
0.16847 
0.15517 
0.15517 
0.19808 
0.19808 
0.07189 
0.07189 
0.17047 
0.17047 
0.08740 
0.08740 
0.08552 
0.08552 
SCALARS Umean_X double 1 
LOOKUP_TABLE default
0.01250 
0.01250 
0.04600 
0.04600 
-0.00900 
-0.00900 
0.01800 
0.01800 
0.04800 
0.04800 
0.03650 
0.03650 
0.02200 
0.02200 
0.01350 
0.01350 
0.10100 
0.10100 
0.05850 
0.05850 
-0.09550 
-0.09550 
0.08250 
0.08250 
-0.02600 
-0.02600 
0.07900 
0.07900 
-0.02500 
-0.02500 
0.04650 
0.04650 
0.05250 
0.05250 
0.14100 
0.14100 
0.01200 
0.01200 
0.14450 
0.14450 
0.08150 
0.08150 
0.04250 
0.04250 
-0.00750 
-0.00750 
0.04600 
0.04600 
0.08200 
0.08200 
0.12350 
0.12350 
0.00900 
0.00900 
-0.05650 
-0.05650 
0.10750 
0.10750 
0.02250 
0.02250 
0.06850 
0.06850 
0.09700 
0.09700 
-0.04150 
-0.04150 
0.01000 
0.01000 
0.06050 
0.06050 
0.05850 
0.05850 
0.06500 
0.06500 
0.06200 
0.06200 
-0.04450 
-0.04450 
0.08850 
0.08850 
0.09750 
0.09750 
-0.01750 
-0.01750 
0.05850 
0.05850 
0.11000 
0.11000 
0.03250 
0.03250 
0.10050 
0.10050 
0.03400 
0.03400 
0.09300 
0.09300 
0.12150 
0.12150 
0.07400 
0.07400 
0.06900 
0.06900 
0.09550 
0.09550 
-0.04650 
-0.04650 
0.06050 
0.06050 
0.05750 
0.05750 
0.08250 
0.08250 
0.10150 
0.10150 
-0.03550 
-0.03550 
0.01750 
0.01750 
-0.00250 
-0.00250 
-0.02450 
-0.02450 
0.01100 
0.01100 
0.01100 
0.01100 
0.06850 
0.06850 
-0.03550 
-0.03550 
-0.06100 
-0.06100 
0.11750 
0.11750 
0.02700 
0.02700 
0.09000 
0.09000 
-0.02200 
-0.02200 
0.11100 
0.11100 
0.00400 
0.00400 
0.02950 
0.02950 
-0.04900 
-0.04900 
0.10150 
0.10150 
0.02600 
0.02600 
0.01700 
0.01700 
0.00250 
0.00250 
0.04850 
0.04850 
0.06150 
0.06150 
0.09200 
0.09200 
0.06200 
0.06200 
0.07450 
0.07450 
0.00100 
0.00100 
0.02050 
0.02050 
0.04700 
0.04700 
0.03250 
0.03250 
0.08600 
0.08600 
-0.05200 
-0.05200 
0.08450 
0.08450 
0.08600 
0.08600 
0.01900 
0.01900 
0.02900 
0.02900 
-0.00000 
-0.00000 
0.03100 
0.03100 
0.00550 
0.00550 
0.04800 
0.04800 
0.01100 
0.01100 
-0.02200 
-0.02200 
0.09400 
0.09400 
-0.00100 
-0.00100 
0.11350 
0.11350 
0.07250 
0.07250 
0.07850 
0.07850 
0.12050 
0.12050 
0.06750 
0.06750 
0.10150 
0.10150 
-0.05000 
-0.05000 
0.07200 
0.07200 
0.00300 
0.00300 
-0.03100 
-0.03100 
0.03350 
0.03350 
-0.03100 
-0.03100 
0.03350 
0.03350 
0.09000 
0.09000 
0.15650 
0.15650 
0.12200 
0.12200 
0.10150 
0.10150 
0.12600 
0.12600 
0.19600 
0.19600 
-0.04900 
-0.04900 
-0.00150 
-0.00150 
0.01050 
0.01050 
0.02150 
0.02150 
0.07400 
0.07400 
0.06250 
0.06250 
0.12750 
0.12750 
0.07600 
0.07600 
-0.04400 
-0.04400 
0.05850 
0.05850 
0.08300 
0.08300 
0.00800 
0.00800 
0.08250 
0.08250 
0.04400 
0.04400 
0.08200 
0.08200 
0.13700 
0.13700 
0.10650 
0.10650 
0.03750 
0.03750 
-0.02850 
-0.02850 
0.11450 
0.11450 
0.08750 
0.08750 
0.07200 
0.07200 
0.06550 
0.06550 
0.03300 
0.03300 
0.18350 
0.18350 
-0.05700 
-0.05700 
-0.01350 
-0.01350 
0.10900 
0.10900 
0.05400 
0.05400 
0.09600 
0.09600 
-0.04700 
-0.04700 
-0.01100 
-0.01100 
0.07000 
0.07000 
0.06350 
0.06350 
-0.06900 
-0.06900 
0.01600 
0.01600 
0.07850 
0.07850 
-0.02500 
-0.02500 
0.02800 
0.02800 
0.00700 
0.00700 
0.00950 
0.00950 
0.01300 
0.01300 
0.06200 
0.06200 
0.11950 
0.11950 
0.06550 
0.06550 
0.03300 
0.03300 
0.08950 
0.08950 
-0.00900 
-0.00900 
0.13450 
0.13450 
0.04550 
0.04550 
0.09400 
0.09400 
0.00550 
0.00550 
0.08050 
0.08050 
0.09850 
0.09850 
0.04750 
0.04750 
0.10700 
0.10700 
0.09200 
0.09200 
0.08650 
0.08650 
0.10850 
0.10850 
0.24450 
0.24450 
0.07550 
0.07550 
0.09350 
0.09350 
-0.05500 
-0.05500 
0.11100 
0.11100 
-0.02000 
-0.02000 
0.00850 
0.00850 
0.09850 
0.09850 
0.10900 
0.10900 
-0.05450 
-0.05450 
0.01150 
0.01150 
-0.04000 
-0.04000 
-0.00800 
-0.00800 
-0.05000 
-0.05000 
0.02450 
0.02450 
0.03750 
0.03750 
0.12550 
0.12550 
0.05950 
0.05950 
0.07100 
0.07100 
-0.01050 
-0.01050 
0.00250 
0.00250 
-0.00100 
-0.00100 
0.06750 
0.06750 
0.04100 
0.04100 
0.06650 
0.06650 
-0.07450 
-0.07450 
0.01950 
0.01950 
0.03950 
0.03950 
0.09450 
0.09450 
0.06200 
0.06200 
-0.09150 
-0.09150 
0.03150 
0.03150 
0.09850 
0.09850 
-0.01250 
-0.01250 
0.00250 
0.00250 
0.11150 
0.11150 
0.06600 
0.06600 
0.02150 
0.02150 
0.09400 
0.09400 
0.01400 
0.01400 
0.00600 
0.00600 
0.09850 
0.09850 
0.07550 
0.07550 
0.09050 
0.09050 
0.12050 
0.12050 
0.04850 
0.04850 
0.11300 
0.11300 
0.10200 
0.10200 
0.03850 
0.03850 
0.05700 
0.05700 
0.07750 
0.07750 
0.04700 
0.04700 
0.05950 
0.05950 
0.18350 
0.18350 
0.13350 
0.13350 
-0.01650 
-0.01650 
0.03800 
0.03800 
0.08050 
0.08050 
0.04900 
0.04900 
0.11300 
0.11300 
0.13450 
0.13450 
0.03350 
0.03350 
0.08850 
0.08850 
0.01950 
0.01950 
0.10800 
0.10800 
0.05950 
0.05950 
0.11550 
0.11550 
-0.01850 
-0.01850 
0.03200 
0.03200 
0.10550 
0.10550 
-0.00150 
-0.00150 
0.06500 
0.06500 
0.06850 
0.06850 
0.07850 
0.07850 
0.02700 
0.02700 
0.06350 
0.06350 
-0.01600 
-0.01600 
0.17500 
0.17500 
0.05700 
0.05700 
0.06050 
0.06050 
-0.00950 
-0.00950 
-0.00750 
-0.00750 
0.03500 
0.03500 
0.13300 
0.13300 
0.01750 
0.01750 
0.06050 
0.06050 
0.07900 
0.07900 
0.06400 
0.06400 
0.11650 
0.11650 
0.03750 
0.03750 
0.04150 
0.04150 
0.14500 
0.14500 
0.06800 
0.06800 
0.07300 
0.07300 
0.00400 
0.00400 
-0.00150 
-0.00150 
0.06800 
0.06800 
0.08100 
0.08100 
0.03250 
0.03250 
0.06150 
0.06150 
0.05050 
0.05050 
0.00550 
0.00550 
0.09750 
0.09750 
0.03100 
0.03100 
0.01150 
0.01150 
0.11900 
0.11900 
0.10250 
0.10250 
0.02250 
0.02250 
0.02900 
0.02900 
0.03650 
0.03650 
0.06350 
0.06350 
0.13250 
0.13250 
0.00700 
0.00700 
0.10350 
0.10350 
0.06900 
0.06900 
0.07400 
0.07400 
0.05600 
0.05600 
0.06750 
0.06750 
0.00700 
0.00700 
0.03300 
0.03300 
0.04300 
0.04300 
-0.06200 
-0.06200 
0.03150 
0.03150 
0.01550 
0.01550 
-0.01200 
-0.01200 
0.06350 
0.06350 
0.00250 
0.00250 
0.14900 
0.14900 
0.11050 
0.11050 
-0.03600 
-0.03600 
0.17250 
0.17250 
0.03950 
0.03950 
-0.03750 
-0.03750 
0.13200 
0.13200 
0.20650 
0.20650 
0.10150 
0.10150 
0.04300 
0.04300 
-0.06200 
-0.06200 
0.08950 
0.08950 
0.02300 
0.02300 
0.05700 
0.05700 
0.02350 
0.02350 
0.10400 
0.10400 
0.03200 
0.03200 
0.06150 
0.06150 
-0.02650 
-0.02650 
0.07000 
0.07000 
-0.02850 
-0.02850 
0.02200 
0.02200 
0.09300 
0.09300 
0.10000 
0.10000 
0.06700 
0.06700 
0.13100 
0.13100 
0.01400 
0.01400 
0.06500 
0.06500 
0.07650 
0.07650 
-0.03350 
-0.03350 
-0.04900 
-0.04900 
0.13150 
0.13150 
0.16900 
0.16900 
-0.02100 
-0.02100 
0.06100 
0.06100 
0.14300 
0.14300 
0.06450 
0.06450 
0.01800 
0.01800 
0.08950 
0.08950 
0.14500 
0.14500 
0.13000 
0.13000 
0.07600 
0.07600 
0.09650 
0.09650 
0.10200 
0.10200 
0.13550 
0.13550 
0.06000 
0.06000 
0.14350 
0.14350 
0.06850 
0.06850 
-0.02250 
-0.02250 
0.15750 
0.15750 
0.09900 
0.09900 
-0.05050 
-0.05050 
0.09150 
0.09150 
0.07550 
0.07550 
0.05100 
0.05100 
0.05450 
0.05450 
0.02100 
0.02100 
0.12150 
0.12150 
0.16300 
0.16300 
0.00100 
0.00100 
0.07200 
0.07200 
0.05300 
0.05300 
0.13900 
0.13900 
0.06550 
0.06550 
-0.03800 
-0.03800 
0.04950 
0.04950 
-0.02300 
-0.02300 
-0.06750 
-0.06750 
0.02300 
0.02300 
0.01550 
0.01550 
0.01350 
0.01350 
0.05800 
0.05800 
0.06250 
0.06250 
0.03500 
0.03500 
0.09750 
0.09750 
-0.02300 
-0.02300 
0.09750 
0.09750 
0.00200 
0.00200 
0.11000 
0.11000 
0.07500 
0.07500 
0.04300 
0.04300 
0.01850 
0.01850 
0.08950 
0.08950 
0.02600 
0.02600 
-0.05950 
-0.05950 
-0.08650 
-0.08650 
0.05700 
0.05700 
0.10750 
0.10750 
0.18000 
0.18000 
0.10600 
0.10600 
0.02350 
0.02350 
0.05800 
0.05800 
0.08350 
0.08350 
0.16800 
0.16800 
0.05650 
0.05650 
0.09950 
0.09950 
0.03900 
0.03900 
0.11350 
0.11350 
0.06250 
0.06250 
-0.07000 
-0.07000 
0.12150 
0.12150 
0.10550 
0.10550 
0.00200 
0.00200 
0.00150 
0.00150 
0.05750 
0.05750 
0.06850 
0.06850 
0.01000 
0.01000 
0.01050 
0.01050 
-0.02500 
-0.02500 
0.09750 
0.09750 
0.00900 
0.00900 
0.10500 
0.10500 
0.06450 
0.06450 
0.05000 
0.05000 
0.03700 
0.03700 
0.16150 
0.16150 
0.09100 
0.09100 
-0.02150 
-0.02150 
0.05050 
0.05050 
0.08100 
0.08100 
0.02950 
0.02950 
0.07450 
0.07450 
0.07050 
0.07050 
-0.00850 
-0.00850 
0.12100 
0.12100 
0.08350 
0.08350 
0.00500 
0.00500 
0.10850 
0.10850 
-0.06400 
-0.06400 
0.01300 
0.01300 
0.05250 
0.05250 
-0.00350 
-0.00350 
-0.07050 
-0.07050 
0.07350 
0.07350 
0.12400 
0.12400 
-0.06700 
-0.06700 
-0.00400 
-0.00400 
0.04250 
0.04250 
0.06850 
0.06850 
0.12350 
0.12350 
0.07650 
0.07650 
-0.03250 
-0.03250 
0.01300 
0.01300 
0.01900 
0.01900 
0.00550 
0.00550 
0.09750 
0.09750 
0.00800 
0.00800 
0.06000 
0.06000 
0.13650 
0.13650 
0.03850 
0.03850 
0.13200 
0.13200 
0.09350 
0.09350 
-0.08350 
-0.08350 
0.11750 
0.11750 
0.12700 
0.12700 
0.01350 
0.01350 
0.07350 
0.07350 
-0.02050 
-0.02050 
0.02550 
0.02550 
0.00850 
0.00850 
0.11800 
0.11800 
-0.00550 
-0.00550 
0.10900 
0.10900 
0.04950 
0.04950 
0.05300 
0.05300 
0.01000 
0.01000 
0.02300 
0.02300 
0.08450 
0.08450 
0.15250 
0.15250 
0.07600 
0.07600 
0.08700 
0.08700 
0.00350 
0.00350 
0.02450 
0.02450 
0.10150 
0.10150 
0.03300 
0.03300 
0.13200 
0.13200 
0.08200 
0.08200 
0.08050 
0.08050 
-0.03400 
-0.03400 
0.07600 
0.07600 
0.01800 
0.01800 
0.00350 
0.00350 
0.07200 
0.07200 
0.03450 
0.03450 
0.16800 
0.16800 
0.04600 
0.04600 
0.09600 
0.09600 
0.08350 
0.08350 
0.05000 
0.05000 
0.07100 
0.07100 
0.05650 
0.05650 
0.09350 
0.09350 
0.11500 
0.11500 
0.02950 
0.02950 
0.12150 
0.12150 
0.05150 
0.05150 
-0.01300 
-0.01300 
0.06800 
0.06800 
0.05400 
0.05400 
0.04600 
0.04600 
SCALARS Umean_Y double 1 
LOOKUP_TABLE default
0.12200 
0.12200 
0.11400 
0.11400 
0.09300 
0.09300 
0.12150 
0.12150 
0.06250 
0.06250 
-0.00050 
-0.00050 
0.08500 
0.08500 
0.00400 
0.00400 
0.11350 
0.11350 
0.11300 
0.11300 
0.05650 
0.05650 
0.03150 
0.03150 
0.06850 
0.06850 
0.12100 
0.12100 
0.12100 
0.12100 
0.08500 
0.08500 
0.12700 
0.12700 
0.07500 
0.07500 
0.09600 
0.09600 
0.12250 
0.12250 
0.08150 
0.08150 
0.02950 
0.02950 
0.06550 
0.06550 
0.11300 
0.11300 
0.02500 
0.02500 
0.10150 
0.10150 
0.08650 
0.08650 
0.05600 
0.05600 
0.12100 
0.12100 
0.12600 
0.12600 
0.17700 
0.17700 
0.03650 
0.03650 
0.09350 
0.09350 
0.08750 
0.08750 
0.05900 
0.05900 
0.02500 
0.02500 
0.09150 
0.09150 
0.07600 
0.07600 
0.06050 
0.06050 
0.09450 
0.09450 
0.10700 
0.10700 
0.11250 
0.11250 
0.12500 
0.12500 
0.06950 
0.06950 
0.14400 
0.14400 
0.07150 
0.07150 
0.12050 
0.12050 
0.16200 
0.16200 
0.10750 
0.10750 
0.01650 
0.01650 
0.08750 
0.08750 
0.13850 
0.13850 
0.08200 
0.08200 
0.12050 
0.12050 
0.10950 
0.10950 
0.09800 
0.09800 
0.15350 
0.15350 
0.11200 
0.11200 
0.08500 
0.08500 
0.14950 
0.14950 
0.14800 
0.14800 
0.03250 
0.03250 
0.09550 
0.09550 
0.09450 
0.09450 
0.06100 
0.06100 
0.12950 
0.12950 
0.11500 
0.11500 
0.07200 
0.07200 
0.04450 
0.04450 
0.08700 
0.08700 
0.06050 
0.06050 
0.03550 
0.03550 
0.12250 
0.12250 
0.10250 
0.10250 
0.09800 
0.09800 
0.08450 
0.08450 
0.09400 
0.09400 
0.07450 
0.07450 
0.00300 
0.00300 
0.02850 
0.02850 
0.03950 