# vtk DataFile Version 2.1 
Trajects from timestep 129 with color option 
ASCII 
 
DATASET POLYDATA POINTS 1052 float 
0.363 9.712 -67.953 
0.373 9.902 -67.901 
-4.307 -3.588 -71.221 
-4.305 -3.536 -71.554 
-0.811 6.218 -70.912 
-0.791 6.392 -70.989 
-0.877 -0.416 -73.481 
-0.705 -0.173 -73.701 
4.443 7.959 -69.264 
4.502 8.159 -69.339 
6.760 -4.542 -68.431 
7.125 -4.317 -68.596 
-4.650 8.934 -73.920 
-4.625 9.093 -73.924 
-10.353 8.720 -67.463 
-10.290 8.975 -67.338 
-3.241 3.452 -67.571 
-3.231 3.621 -67.577 
-10.293 -2.159 -76.798 
-10.347 -1.835 -76.937 
-13.019 -0.361 -73.008 
-13.034 -0.141 -73.099 
8.045 5.940 -67.144 
7.943 6.143 -67.204 
0.633 -4.091 -70.062 
0.835 -3.922 -70.268 
1.678 11.964 -68.937 
1.694 12.077 -68.850 
-8.124 -4.978 -71.321 
-8.129 -4.905 -71.440 
4.594 7.202 -67.924 
4.596 7.264 -68.021 
1.661 10.015 -67.327 
1.638 10.171 -67.287 
4.627 4.212 -70.357 
4.805 4.449 -70.485 
-12.052 6.033 -71.606 
-11.974 6.309 -71.713 
-9.721 3.306 -74.453 
-9.651 3.476 -74.630 
2.816 2.666 -67.681 
3.037 2.922 -67.663 
-6.370 -0.216 -73.498 
-6.367 0.057 -73.643 
-4.553 6.289 -63.803 
-4.578 6.538 -63.756 
4.194 11.675 -72.255 
4.043 11.728 -72.354 
7.530 -7.490 -72.179 
7.659 -7.398 -72.550 
-4.909 6.511 -70.607 
-4.778 6.703 -70.641 
-5.423 0.002 -66.228 
-5.407 0.241 -66.709 
8.446 -1.391 -72.719 
8.581 -1.201 -73.041 
1.022 11.088 -69.274 
1.024 11.298 -69.264 
-12.260 0.837 -72.595 
-12.201 1.127 -72.757 
-0.818 7.690 -66.096 
-0.841 7.959 -66.063 
1.215 10.426 -74.651 
1.242 10.615 -74.670 
1.443 5.503 -73.554 
1.551 5.722 -73.629 
6.454 12.350 -69.180 
6.322 12.270 -69.165 
-7.862 -3.903 -68.870 
-7.620 -3.760 -69.022 
-0.075 -9.297 -64.638 
0.164 -9.240 -64.655 
-1.667 12.781 -64.791 
-1.702 12.964 -64.738 
-10.210 11.515 -70.128 
-10.165 11.782 -70.040 
3.514 6.508 -68.109 
3.521 6.620 -68.215 
-12.340 -4.035 -74.873 
-12.280 -3.869 -75.045 
-1.636 -7.377 -69.149 
-1.502 -7.448 -69.435 
6.804 8.610 -77.364 
6.939 8.713 -77.608 
-1.219 6.838 -69.424 
-1.119 7.150 -69.496 
17.003 6.463 -72.690 
17.138 6.504 -72.808 
-3.261 11.357 -66.710 
-3.216 11.471 -66.594 
7.681 4.306 -74.459 
7.884 4.586 -74.736 
-3.562 0.629 -72.440 
-3.295 0.809 -72.776 
-8.610 10.813 -67.417 
-8.671 11.064 -67.284 
1.936 -8.990 -69.932 
2.137 -8.911 -70.085 
-11.646 1.831 -70.002 
-11.500 2.247 -70.233 
-13.736 -5.882 -73.012 
-13.569 -5.800 -73.108 
1.581 11.452 -65.139 
1.568 11.631 -64.978 
3.312 3.681 -69.913 
3.529 3.957 -70.053 
-1.867 1.123 -65.420 
-1.864 1.180 -65.536 
2.572 -4.945 -66.770 
2.852 -4.833 -67.266 
-4.060 -6.650 -69.247 
-3.802 -6.626 -69.516 
-2.211 2.762 -66.528 
-2.136 3.042 -66.544 
-9.319 -7.533 -69.780 
-9.224 -7.387 -69.965 
5.633 8.415 -66.507 
5.674 8.630 -66.380 
-13.465 11.342 -71.706 
-13.486 11.507 -71.663 
9.891 3.978 -70.337 
10.032 4.294 -70.473 
0.001 6.019 -69.686 
0.103 6.228 -69.773 
5.628 8.960 -66.497 
5.700 9.193 -66.406 
-7.939 3.907 -64.498 
-7.952 3.943 -64.707 
1.884 8.787 -72.508 
1.856 8.956 -72.556 
8.588 -2.535 -70.532 
8.819 -2.446 -70.823 
-9.091 -6.329 -67.403 
-9.026 -6.186 -67.575 
7.952 7.971 -67.233 
8.030 8.184 -67.242 
11.457 -0.713 -68.145 
11.476 -0.570 -68.144 
-5.661 7.088 -65.713 
-5.589 7.380 -65.692 
5.429 10.250 -64.723 
5.485 10.403 -64.705 
7.613 -10.106 -67.457 
7.861 -10.130 -67.596 
-8.160 12.482 -65.815 
-8.203 12.767 -65.732 
2.248 12.849 -68.206 
2.033 12.952 -68.062 
-0.175 8.006 -71.188 
-0.143 8.217 -71.153 
10.983 -0.687 -64.542 
11.118 -0.487 -64.658 
-7.384 -7.186 -69.279 
-7.380 -7.027 -69.311 
-0.920 -3.336 -66.131 
-0.724 -3.158 -66.668 
-4.462 -10.294 -71.505 
-4.410 -10.159 -71.693 
10.413 6.003 -68.474 
10.447 6.153 -68.529 
-12.835 2.701 -69.782 
-12.823 3.076 -70.045 
11.632 -2.545 -69.919 
11.637 -2.394 -69.889 
-0.533 12.708 -68.048 
-0.468 12.889 -68.071 
8.210 -9.908 -71.143 
8.341 -9.856 -71.380 
11.841 -3.393 -67.130 
12.016 -3.102 -67.293 
7.599 9.619 -65.079 
7.631 9.713 -65.044 
3.839 -9.008 -67.204 
4.215 -9.001 -67.349 
-11.610 -2.420 -70.540 
-11.433 -2.323 -70.616 
-12.111 -7.060 -69.343 
-12.032 -6.886 -69.577 
-14.449 -8.069 -72.798 
-14.415 -7.964 -72.945 
0.567 7.977 -63.808 
0.528 8.121 -63.830 
2.198 0.514 -69.150 
2.359 0.539 -69.422 
-7.083 3.878 -65.590 
-7.042 4.030 -65.708 
5.371 -11.337 -69.716 
5.469 -11.209 -69.825 
11.422 6.208 -71.790 
11.454 6.190 -71.882 
0.765 10.176 -67.753 
0.755 10.344 -67.705 
-4.158 7.579 -62.153 
-4.221 7.821 -62.068 
9.094 7.652 -66.194 
9.191 7.826 -66.255 
6.715 -7.113 -69.239 
7.001 -7.019 -69.430 
-1.180 2.356 -69.961 
-0.987 2.658 -70.135 
-14.415 -1.207 -68.331 
-14.348 -1.042 -68.626 
1.692 -1.306 -65.960 
1.869 -1.161 -66.319 
5.157 7.069 -66.247 
5.209 7.258 -66.329 
-10.896 -2.389 -66.059 
-10.776 -2.090 -66.499 
3.093 -3.574 -67.490 
3.357 -3.537 -67.817 
-10.809 -7.369 -61.401 
-10.656 -7.056 -61.720 
-13.018 11.164 -68.162 
-13.136 11.539 -67.918 
12.172 -1.879 -65.378 
12.234 -1.686 -65.442 
-10.251 0.953 -75.513 
-10.168 1.151 -75.606 
-15.766 9.348 -73.427 
-15.899 9.434 -73.526 
0.092 -9.595 -71.774 
0.275 -9.525 -71.953 
1.084 -11.539 -74.614 
1.327 -11.395 -74.509 
0.017 11.041 -68.517 
-0.012 11.176 -68.469 
-2.365 5.350 -69.736 
-2.234 5.664 -69.643 
-7.373 3.662 -75.467 
-7.315 3.787 -75.610 
-7.278 9.563 -64.319 
-7.323 9.839 -64.283 
-7.616 8.317 -68.966 
-7.565 8.579 -68.978 
-4.127 11.666 -59.565 
-4.118 11.791 -59.239 
0.568 2.273 -63.373 
0.739 2.565 -63.522 
-6.784 -7.487 -68.461 
-6.764 -7.310 -68.605 
-7.481 6.526 -63.940 
-7.519 6.674 -64.026 
-3.209 10.509 -61.170 
-3.412 10.639 -60.885 
-6.743 -6.109 -68.918 
-6.586 -5.948 -69.078 
-9.327 -8.600 -68.028 
-9.164 -8.464 -68.376 
-12.520 5.162 -64.338 
-12.471 5.188 -64.417 
3.797 8.946 -64.795 
3.764 9.136 -64.885 
12.136 -0.402 -73.125 
12.255 -0.286 -73.191 
-6.032 12.286 -68.026 
-5.976 12.373 -67.911 
10.130 5.782 -64.050 
10.224 6.018 -64.105 
9.142 -2.654 -69.495 
9.466 -2.493 -69.855 
-6.628 -6.073 -67.225 
-6.337 -5.904 -67.438 
-11.510 5.079 -63.669 
-11.453 5.149 -63.836 
0.454 -4.738 -65.177 
0.694 -4.487 -65.542 
-4.253 -7.494 -76.541 
-4.160 -7.265 -76.761 
3.942 0.089 -67.024 
4.116 0.153 -67.403 
-7.203 0.699 -63.689 
-7.218 0.839 -64.068 
6.084 0.081 -76.133 
6.150 0.282 -76.335 
-3.089 -7.782 -69.924 
-3.063 -7.753 -70.096 
-3.141 -8.097 -69.238 
-3.166 -8.144 -69.390 
-0.535 0.068 -69.139 
-0.464 0.352 -69.397 
-10.527 7.528 -68.748 
-10.332 8.016 -68.739 
-11.521 -8.685 -66.475 
-11.519 -8.636 -66.934 
-10.572 -1.267 -62.624 
-10.436 -0.986 -62.980 
4.470 5.198 -66.656 
4.531 5.406 -66.606 
-14.678 -0.999 -72.933 
-14.520 -0.711 -73.125 
-9.530 -1.968 -67.623 
-9.350 -1.699 -67.981 
6.888 3.757 -62.514 
7.087 3.932 -62.510 
-8.238 -1.657 -67.127 
-8.009 -1.455 -67.587 
4.777 -8.730 -65.775 
4.945 -8.672 -65.886 
-2.072 -5.174 -72.697 
-1.905 -4.928 -72.717 
-8.519 2.971 -66.621 
-8.603 3.152 -66.721 
-7.719 -6.397 -69.166 
-7.594 -6.192 -69.264 
-4.419 0.412 -67.300 
-4.312 0.650 -67.468 
-7.808 5.947 -69.779 
-7.652 6.417 -69.956 
7.809 0.226 -60.813 
7.866 0.374 -60.866 
7.364 -7.156 -69.161 
7.576 -7.001 -69.409 
-10.720 -9.269 -69.427 
-10.649 -9.273 -69.616 
-13.406 10.048 -72.761 
-13.358 10.172 -72.728 
-12.777 -5.969 -67.770 
-12.746 -5.941 -68.029 
12.994 -0.889 -71.995 
12.998 -0.794 -71.994 
-2.027 -2.820 -67.010 
-1.912 -2.625 -67.433 
-10.738 1.957 -64.383 
-10.747 2.090 -64.778 
4.775 3.245 -65.604 
4.884 3.336 -65.728 
-11.469 8.124 -75.902 
-11.422 8.236 -75.996 
3.225 6.178 -62.696 
3.299 6.434 -62.516 
-8.786 7.001 -64.882 
-8.802 7.149 -64.919 
14.037 -4.330 -73.569 
14.282 -4.196 -73.641 
3.754 -1.445 -68.093 
4.050 -1.121 -68.357 
12.424 8.968 -70.312 
12.678 8.936 -70.525 
-8.922 -6.484 -70.836 
-8.872 -6.393 -70.873 
-12.902 -2.619 -66.763 
-12.726 -2.511 -67.072 
0.163 -6.967 -69.939 
0.318 -6.909 -70.059 
-7.682 5.686 -76.415 
-7.642 5.801 -76.501 
10.113 1.917 -68.740 
10.160 2.265 -68.789 
1.036 2.115 -65.775 
1.112 2.181 -66.012 
-3.775 9.575 -61.288 
-3.899 9.778 -61.236 
10.163 6.788 -67.464 
10.195 6.894 -67.607 
5.623 -12.513 -67.804 
5.803 -12.473 -67.923 
12.904 7.423 -70.820 
13.012 7.219 -71.212 
15.063 6.659 -69.754 
15.269 6.708 -69.899 
-13.733 -5.728 -69.764 
-13.727 -5.633 -70.132 
17.186 8.227 -69.501 
17.456 8.368 -69.507 
-0.157 -3.184 -70.014 
0.192 -3.009 -70.304 
11.027 3.803 -74.095 
11.165 3.934 -74.353 
-4.188 -9.712 -68.049 
-4.077 -9.582 -68.175 
-11.875 6.205 -66.219 
-11.835 6.399 -66.205 
10.951 -6.591 -73.468 
11.069 -6.636 -73.696 
2.472 -2.630 -66.955 
2.687 -2.550 -67.300 
8.890 -3.081 -62.934 
8.920 -2.916 -63.110 
2.218 -12.559 -65.363 
2.321 -12.505 -65.332 
12.409 -8.330 -70.484 
12.447 -8.208 -70.718 
-0.626 -11.160 -68.333 
-0.442 -11.058 -68.322 
-10.074 -5.256 -67.285 
-9.969 -5.187 -67.395 
-5.183 -1.856 -61.573 
-5.022 -1.658 -61.965 
12.198 5.947 -66.561 
12.319 6.219 -66.687 
12.954 11.701 -74.924 
13.071 11.664 -75.037 
-4.104 -5.365 -71.053 
-3.959 -5.327 -71.281 
8.495 11.722 -65.625 
8.433 11.805 -65.706 
4.839 -4.334 -66.591 
5.215 -4.306 -66.932 
-1.854 -11.351 -72.753 
-1.717 -11.286 -72.792 
-1.934 -9.879 -65.559 
-1.852 -9.783 -65.597 
7.848 11.566 -70.002 
7.751 11.349 -70.098 
-9.229 8.229 -61.857 
-9.302 8.446 -61.898 
-15.388 -6.057 -75.018 
-15.368 -6.032 -75.121 
7.871 -3.768 -64.783 
8.052 -3.562 -64.884 
-0.489 2.726 -77.410 
-0.441 2.861 -77.387 
10.606 8.139 -69.603 
10.758 8.210 -69.660 
-2.659 -12.922 -65.323 
-2.575 -12.886 -65.408 
-2.099 7.530 -73.455 
-2.018 7.831 -73.493 
-6.752 -4.800 -67.494 
-6.438 -4.573 -67.606 
14.656 -12.120 -69.970 
14.802 -12.028 -70.078 
-15.390 3.139 -76.591 
-15.588 3.249 -76.798 
-6.029 -5.056 -68.656 
-5.836 -5.019 -68.913 
-11.093 8.313 -72.739 
-11.117 8.584 -72.738 
0.730 2.248 -65.498 
0.790 2.319 -65.685 
-3.310 -2.949 -73.876 
-3.330 -2.742 -73.860 
10.509 -1.727 -71.013 
10.604 -1.622 -71.252 
-10.503 -10.423 -73.867 
-10.315 -10.221 -74.032 
16.349 -7.877 -74.175 
16.536 -7.858 -74.282 
-6.345 9.481 -75.741 
-6.279 9.648 -75.768 
[...]
POINT_DATA 1052 
SCALARS Umean double 1 
LOOKUP_TABLE default
0.09862 
0.09862 
0.16852 
0.16852 
0.09566 
0.09566 
0.18509 
0.18509 
0.11080 
0.11080 
0.22971 
0.22971 
0.08050 
0.08050 
0.14545 
0.14545 
0.08470 
0.08470 
0.17833 
0.17833 
0.11927 
0.11927 
0.11749 
0.11749 
0.16718 
0.16718 
0.07175 
0.07175 
0.06985 
0.06985 
0.05757 
0.05757 
0.08134 
0.08134 
0.16143 
0.16143 
0.15306 
0.15306 
0.12760 
0.12760 
0.16934 
0.16934 
0.15457 
0.15457 
0.12731 
0.12731 
0.09409 
0.09409 
0.20171 
0.20171 
0.11745 
0.11745 
0.26867 
0.26867 
0.19875 
0.19875 
0.10512 
0.10512 
0.16869 
0.16869 
0.13600 
0.13600 
0.09593 
0.09593 
0.12772 
0.12772 
0.07754 
0.07754 
0.15978 
0.15978 
0.12315 
0.12315 
0.09685 
0.09685 
0.14235 
0.14235 
0.07718 
0.07718 
0.12323 
0.12323 
0.16186 
0.16186 
0.14864 
0.14864 
0.16773 
0.16773 
0.09196 
0.09196 
0.08438 
0.08438 
0.22155 
0.22155 
0.23269 
0.23269 
0.14527 
0.14527 
0.13234 
0.13234 
0.24886 
0.24886 
0.10468 
0.10468 
0.12055 
0.12055 
0.18899 
0.18899 
0.06464 
0.06464 
0.29024 
0.29024 
0.18675 
0.18675 
0.14516 
0.14516 
0.12705 
0.12705 
0.12653 
0.12653 
0.08590 
0.08590 
0.18590 
0.18590 
0.12415 
0.12415 
0.13015 
0.13015 
0.10624 
0.10624 
0.08895 
0.08895 
0.19103 
0.19103 
0.11647 
0.11647 
0.11351 
0.11351 
0.07213 
0.07213 
0.15074 
0.15074 
0.08196 
0.08196 
0.14265 
0.14265 
0.14997 
0.14997 
0.13926 
0.13926 
0.10813 
0.10813 
0.13387 
0.13387 
0.08112 
0.08112 
0.29936 
0.29936 
0.11861 
0.11861 
0.08167 
0.08167 
0.22909 
0.22909 
0.07702 
0.07702 
0.09684 
0.09684 
0.13787 
0.13787 
0.18833 
0.18833 
0.05264 
0.05264 
0.20153 
0.20153 
0.10784 
0.10784 
0.15106 
0.15106 
0.09191 
0.09191 
0.07540 
0.07540 
0.15853 
0.15853 
0.09837 
0.09837 
0.09730 
0.09730 
0.04953 
0.04953 
0.08750 
0.08750 
0.13206 
0.13206 
0.10417 
0.10417 
0.17826 
0.17826 
0.19920 
0.19920 
0.17229 
0.17229 
0.21286 
0.21286 
0.10624 
0.10624 
0.27267 
0.27267 
0.21095 
0.21095 
0.23619 
0.23619 
0.23135 
0.23135 
0.10629 
0.10629 
0.11699 
0.11699 
0.09339 
0.09339 
0.13269 
0.13269 
0.15067 
0.15067 
0.07309 
0.07309 
0.17636 
0.17636 
0.09930 
0.09930 
0.14098 
0.14098 
0.13359 
0.13359 
0.17463 
0.17463 
0.18487 
0.18487 
0.11453 
0.11453 
0.08767 
0.08767 
0.18664 
0.18664 
0.13799 
0.13799 
0.20382 
0.20382 
0.04826 
0.04826 
0.10641 
0.10641 
0.08940 
0.08940 
0.07735 
0.07735 
0.12996 
0.12996 
0.25519 
0.25519 
0.19913 
0.19913 
0.09492 
0.09492 
0.25191 
0.25191 
0.16545 
0.16545 
0.21096 
0.21096 
0.20215 
0.20215 
0.14625 
0.14625 
0.08818 
0.08818 
0.08053 
0.08053 
0.19510 
0.19510 
0.26280 
0.26280 
0.23081 
0.23081 
0.23675 
0.23675 
0.11123 
0.11123 
0.19024 
0.19024 
0.24131 
0.24131 
0.13252 
0.13252 
0.27606 
0.27606 
0.10477 
0.10477 
0.14900 
0.14900 
0.11160 
0.11160 
0.12967 
0.12967 
0.15517 
0.15517 
0.26295 
0.26295 
0.08361 
0.08361 
0.18061 
0.18061 
0.10097 
0.10097 
0.06850 
0.06850 
0.13117 
0.13117 
0.04754 
0.04754 
0.23988 
0.23988 
0.20844 
0.20844 
0.09426 
0.09426 
0.07679 
0.07679 
0.16079 
0.16079 
0.07670 
0.07670 
0.14419 
0.14419 
0.25607 
0.25607 
0.16652 
0.16652 
0.05511 
0.05511 
0.18582 
0.18582 
0.10221 
0.10221 
0.07453 
0.07453 
0.17728 
0.17728 
0.12874 
0.12874 
0.12175 
0.12175 
0.09043 
0.09043 
0.10973 
0.10973 
0.22746 
0.22746 
0.12832 
0.12832 
0.19006 
0.19006 
0.15233 
0.15233 
0.24317 
0.24317 
0.16029 
0.16029 
0.10618 
0.10618 
0.09929 
0.09929 
0.13032 
0.13032 
0.20715 
0.20715 
0.12155 
0.12155 
0.06018 
0.06018 
0.13331 
0.13331 
0.10533 
0.10533 
0.08350 
0.08350 
0.23387 
0.23387 
0.16163 
0.16163 
0.08341 
0.08341 
0.13643 
0.13643 
0.06575 
0.06575 
0.25419 
0.25419 
0.07829 
0.07829 
0.06592 
0.06592 
0.12817 
0.12817 
0.11630 
0.11630 
0.05393 
0.05393 
0.14611 
0.14611 
0.07256 
0.07256 
0.08859 
0.08859 
0.06240 
0.06240 
0.15701 
0.15701 
0.20166 
0.20166 
0.10179 
0.10179 
0.15342 
0.15342 
0.16176 
0.16176 
0.13603 
0.13603 
0.10442 
0.10442 
0.10429 
0.10429 
0.13890 
0.13890 
0.16076 
0.16076 
0.10814 
0.10814 
0.09079 
0.09079 
0.05608 
0.05608 
0.18594 
0.18594 
0.23369 
0.23369 
0.07063 
0.07063 
0.16048 
0.16048 
0.18183 
0.18183 
0.26770 
0.26770 
0.14822 
0.14822 
0.12657 
0.12657 
0.09012 
0.09012 
0.15756 
0.15756 
0.17925 
0.17925 
0.10095 
0.10095 
0.14150 
0.14150 
0.12610 
0.12610 
0.09293 
0.09293 
0.05609 
0.05609 
0.19762 
0.19762 
0.11834 
0.11834 
0.05556 
0.05556 
0.14367 
0.14367 
0.09860 
0.09860 
0.12833 
0.12833 
0.09998 
0.09998 
0.15545 
0.15545 
0.12296 
0.12296 
0.09014 
0.09014 
0.26099 
0.26099 
0.11996 
0.11996 
0.09597 
0.09597 
0.14710 
0.14710 
0.05444 
0.05444 
0.09022 
0.09022 
0.18175 
0.18175 
0.09094 
0.09094 
0.09231 
0.09231 
0.10452 
0.10452 
0.12262 
0.12262 
0.12399 
0.12399 
0.12328 
0.12328 
0.12407 
0.12407 
0.13859 
0.13859 
0.10975 
0.10975 
0.08521 
0.08521 
0.09681 
0.09681 
0.25822 
0.25822 
0.13883 
0.13883 
0.11823 
0.11823 
0.10285 
0.10285 
0.17333 
0.17333 
0.18238 
0.18238 
0.11436 
0.11436 
0.08475 
0.08475 
0.14196 
0.14196 
0.09354 
0.09354 
0.24731 
0.24731 
0.17025 
0.17025 
0.14869 
0.14869 
0.14486 
0.14486 
0.18391 
0.18391 
0.09222 
0.09222 
0.11508 
0.11508 
0.15551 
0.15551 
0.12164 
0.12164 
0.13810 
0.13810 
0.04620 
0.04620 
0.08170 
0.08170 
0.17550 
0.17550 
0.19173 
0.19173 
0.11738 
0.11738 
0.05270 
0.05270 
0.18075 
0.18075 
0.10055 
0.10055 
0.09062 
0.09062 
0.20011 
0.20011 
0.14718 
0.14718 
0.11800 
0.11800 
0.08285 
0.08285 
0.13748 
0.13748 
0.15368 
0.15368 
0.14681 
0.14681 
0.08365 
0.08365 
0.24518 
0.24518 
0.23043 
0.23043 
0.10715 
0.10715 
0.18258 
0.18258 
0.12597 
0.12597 
0.12694 
0.12694 
0.05405 
0.05405 
0.13962 
0.13962 
0.12774 
0.12774 
0.10107 
0.10107 
0.10304 
0.10304 
0.08646 
0.08646 
0.16416 
0.16416 
0.16301 
0.16301 
0.19896 
0.19896 
0.12449 
0.12449 
0.03447 
0.03447 
0.10010 
0.10010 
0.25389 
0.25389 
0.10216 
0.10216 
0.09103 
0.09103 
0.08733 
0.08733 
0.12605 
0.12605 
0.15133 
0.15133 
0.07764 
0.07764 
0.16594 
0.16594 
0.11550 
0.11550 
0.08000 
0.08000 
0.19951 
0.19951 
0.10880 
0.10880 
0.19482 
0.19482 
0.08656 
0.08656 
0.21159 
0.21159 
0.11880 
0.11880 
0.04872 
0.04872 
0.31421 
0.31421 
0.11686 
0.11686 
0.14972 
0.14972 
0.13876 
0.13876 
0.18883 
0.18883 
0.16101 
0.16101 
0.11591 
0.11591 
0.18179 
0.18179 
0.12813 
0.12813 
0.14252 
0.14252 
0.18505 
0.18505 
0.18384 
0.18384 
0.14703 
0.14703 
0.11673 
0.11673 
0.08094 
0.08094 
0.06369 
0.06369 
0.20125 
0.20125 
0.03920 
0.03920 
0.14561 
0.14561 
0.12036 
0.12036 
0.20581 
0.20581 
0.20326 
0.20326 
0.25467 
0.25467 
0.08509 
0.08509 
0.07844 
0.07844 
0.12049 
0.12049 
0.21261 
0.21261 
0.13132 
0.13132 
0.12384 
0.12384 
0.08668 
0.08668 
0.12939 
0.12939 
0.10446 
0.10446 
0.07326 
0.07326 
0.20544 
0.20544 
0.30195 
0.30195 
0.12331 
0.12331 
0.27973 
0.27973 
0.07120 
0.07120 
0.10244 
0.10244 
0.09130 
0.09130 
0.07476 
0.07476 
0.12334 
0.12334 
0.13581 
0.13581 
0.14246 
0.14246 
0.06628 
0.06628 
0.13702 
0.13702 
0.20371 
0.20371 
0.08939 
0.08939 
0.13754 
0.13754 
0.13511 
0.13511 
0.15209 
0.15209 
0.14413 
0.14413 
0.27805 
0.27805 
0.23063 
0.23063 
0.18227 
0.18227 
0.17748 
0.17748 
0.13191 
0.13191 
0.10490 
0.10490 
0.15044 
0.15044 
0.09197 
0.09197 
0.14904 
0.14904 
0.09455 
0.09455 
0.06867 
0.06867 
0.17962 
0.17962 
0.07259 
0.07259 
0.06483 
0.06483 
0.10631 
0.10631 
0.10676 
0.10676 
0.07739 
0.07739 
0.13623 
0.13623 
0.16436 
0.16436 
0.11056 
0.11056 
0.15768 
0.15768 
0.11011 
0.11011 
0.13811 
0.13811 
0.23938 
0.23938 
0.17461 
0.17461 
0.09796 
0.09796 
0.18953 
0.18953 
0.10180 
0.10180 
0.12955 
0.12955 
0.08947 
0.08947 
0.18480 
0.18480 
0.08214 
0.08214 
0.07032 
0.07032 
0.19025 
0.19025 
0.18544 
0.18544 
0.13411 
0.13411 
0.13053 
0.13053 
0.10305 
0.10305 
0.28189 
0.28189 
0.24747 
0.24747 
0.18230 
0.18230 
0.14230 
0.14230 
0.15095 
0.15095 
0.07132 
0.07132 
0.11495 
0.11495 
0.10761 
0.10761 
0.09782 
0.09782 
0.16250 
0.16250 
0.09687 
0.09687 
0.10633 
0.10633 
0.11695 
0.11695 
0.19103 
0.19103 
0.12944 
0.12944 
0.22209 
0.22209 
0.15345 
0.15345 
0.16841 
0.16841 
0.13187 
0.13187 
0.14631 
0.14631 
0.13506 
0.13506 
0.10540 
0.10540 
0.16761 
0.16761 
0.12671 
0.12671 
0.13160 
0.13160 
0.15350 
0.15350 
0.08918 
0.08918 
0.12581 
0.12581 
0.12398 
0.12398 
0.21124 
0.21124 
0.13329 
0.13329 
0.08914 
0.08914 
0.06555 
0.06555 
0.22272 
0.22272 
0.07668 
0.07668 
0.16548 
0.16548 
0.16528 
0.16528 
0.14098 
0.14098 
0.13556 
0.13556 
0.16491 
0.16491 
0.09257 
0.09257 
0.10665 
0.10665 
0.13107 
0.13107 
0.14706 
0.14706 
0.07755 
0.07755 
0.25313 
0.25313 
0.14229 
0.14229 
0.10949 
0.10949 
0.16967 
0.16967 
0.20215 
0.20215 
0.08617 
0.08617 
0.10395 
0.10395 
0.18012 
0.18012 
0.16554 
0.16554 
0.31471 
0.31471 
0.09044 
0.09044 
0.24623 
0.24623 
0.04963 
0.04963 
0.04740 
0.04740 
0.22916 
0.22916 
0.16132 
0.16132 
0.10561 
0.10561 
0.04034 
0.04034 
0.14412 
0.14412 
0.23449 
0.23449 
0.19495 
0.19495 
0.08999 
0.08999 
0.20166 
0.20166 
0.09823 
0.09823 
0.18595 
0.18595 
0.09752 
0.09752 
0.11153 
0.11153 
0.11509 
0.11509 
0.11658 
0.11658 
0.07269 
0.07269 
0.11355 
0.11355 
0.17477 
0.17477 
0.25745 
0.25745 
0.10197 
0.10197 
0.13445 
0.13445 
0.18421 
0.18421 
0.10017 
0.10017 
0.10678 
0.10678 
0.12743 
0.12743 
0.12903 
0.12903 
0.08647 
0.08647 
0.07428 
0.07428 
0.18575 
0.18575 
0.10458 
0.10458 
0.14052 
0.14052 
0.13414 
0.13414 
0.19250 
0.19250 
0.18621 
0.18621 
0.23173 
0.23173 
0.11449 
0.11449 
0.11964 
0.11964 
0.15765 
0.15765 
0.09295 
0.09295 
0.07274 
0.07274 
SCALARS Umean_X double 1 
LOOKUP_TABLE default
0.00500 
0.00500 
0.00100 
0.00100 
0.01000 
0.01000 
0.08600 
0.08600 
0.02950 
0.02950 
0.18250 
0.18250 
0.01250 
0.01250 
0.03150 
0.03150 
0.00500 
0.00500 
-0.02700 
-0.02700 
-0.00750 
-0.00750 
-0.05100 
-0.05100 
0.10100 
0.10100 
0.00800 
0.00800 
-0.00250 
-0.00250 
0.00100 
0.00100 
-0.01150 
-0.01150 
0.08900 
0.08900 
0.03900 
0.03900 
0.03500 
0.03500 
0.11050 
0.11050 
0.00150 
0.00150 
-0.01250 
-0.01250 
-0.07550 
-0.07550 
0.06450 
0.06450 
0.06550 
0.06550 
0.00800 
0.00800 
0.06750 
0.06750 
0.00100 
0.00100 
0.02950 
0.02950 
-0.01150 
-0.01150 
0.01350 
0.01350 
0.05400 
0.05400 
-0.06600 
-0.06600 
0.12100 
0.12100 
0.11950 
0.11950 
-0.01750 
-0.01750 
0.02250 
0.02250 
0.00350 
0.00350 
0.03000 
0.03000 
0.06700 
0.06700 
0.06750 
0.06750 
0.05000 
0.05000 
0.06750 
0.06750 
0.02250 
0.02250 
0.10150 
0.10150 
0.13350 
0.13350 
-0.03050 
-0.03050 
0.10050 
0.10050 
0.07300 
0.07300 
0.08350 
0.08350 
-0.00650 
-0.00650 
0.10850 
0.10850 
0.00150 
0.00150 
0.14000 
0.14000 
0.12900 
0.12900 
0.03750 
0.03750 
0.04750 
0.04750 
0.02050 
0.02050 
-0.01050 
-0.01050 
0.07050 
0.07050 
0.05100 
0.05100 
0.03600 
0.03600 
-0.00650 
-0.00650 
-0.01400 
-0.01400 
0.11550 
0.11550 
0.03250 
0.03250 
0.03900 
0.03900 
0.00950 
0.00950 
0.03600 
0.03600 
0.02800 
0.02800 
0.12400 
0.12400 
-0.02150 
-0.02150 
-0.10750 
-0.10750 
0.01600 
0.01600 
0.06750 
0.06750 
0.00200 
0.00200 
0.09800 
0.09800 
0.02600 
0.02600 
0.01700 
0.01700 
0.00600 
0.00600 
0.00250 
0.00250 
0.03250 
0.03250 
0.06550 
0.06550 
0.08750 
0.08750 
0.01600 
0.01600 
0.18800 
0.18800 
0.08850 
0.08850 
0.03950 
0.03950 
0.01700 
0.01700 
-0.01950 
-0.01950 
0.08050 
0.08050 
0.02050 
0.02050 
0.04900 
0.04900 
0.01600 
0.01600 
-0.00500 
-0.00500 
-0.03150 
-0.03150 
0.04850 
0.04850 
0.14300 
0.14300 
0.09650 
0.09650 
0.03350 
0.03350 
0.08850 
0.08850 
0.02600 
0.02600 
0.06000 
0.06000 
0.13200 
0.13200 
0.07650 
0.07650 
-0.05900 
-0.05900 
0.03100 
0.03100 
0.04150 
0.04150 
-0.06650 
-0.06650 
0.09150 
0.09150 
0.12150 
0.12150 
-0.01450 
-0.01450 
0.06550 
0.06550 
0.02900 
0.02900 
-0.02250 
-0.02250 
0.02550 
0.02550 
0.00450 
0.00450 
0.08550 
0.08550 
0.01000 
0.01000 
-0.01900 
-0.01900 
-0.10150 
-0.10150 
0.07850 
0.07850 
0.08150 
0.08150 
0.02450 
0.02450 
-0.01650 
-0.01650 
0.05950 
0.05950 
0.02800 
0.02800 
0.04700 
0.04700 
0.16200 
0.16200 
0.14550 
0.14550 
0.02850 
0.02850 
0.12000 
0.12000 
0.04650 
0.04650 
0.08700 
0.08700 
-0.00750 
-0.00750 
0.03300 
0.03300 
0.01300 
0.01300 
-0.01250 
-0.01250 
0.03550 
0.03550 
0.09750 
0.09750 
0.00100 
0.00100 
0.06800 
0.06800 
0.03050 
0.03050 
0.07900 
0.07900 
0.09000 
0.09000 
0.09950 
0.09950 
0.11450 
0.11450 
0.08400 
0.08400 
0.08350 
0.08350 
-0.04200 
-0.04200 
0.06250 
0.06250 
0.05350 
0.05350 
0.07800 
0.07800 
0.02850 
0.02850 
0.10600 
0.10600 
0.03550 
0.03550 
0.02400 
0.02400 
0.01550 
0.01550 
0.00200 
0.00200 
0.05750 
0.05750 
-0.00450 
-0.00450 
0.05450 
0.05450 
0.02350 
0.02350 
0.03700 
0.03700 
-0.00800 
-0.00800 
0.12250 
0.12250 
0.14800 
0.14800 
0.12700 
0.12700 
0.02500 
0.02500 
0.08800 
0.08800 
0.07750 
0.07750 
0.02000 
0.02000 
0.02350 
0.02350 
0.03800 
0.03800 
-0.06200 
-0.06200 
0.01600 
0.01600 
0.09000 
0.09000 
0.05400 
0.05400 
0.10300 
0.10300 
0.00300 
0.00300 
0.13500 
0.13500 
0.17450 
0.17450 
0.06900 
0.06900 
0.05550 
0.05550 
0.02000 
0.02000 
0.05900 
0.05900 
0.10750 
0.10750 
0.01500 
0.01500 
0.05150 
0.05150 
0.01900 
0.01900 
0.09200 
0.09200 
0.05250 
0.05250 
0.08050 
0.08050 
0.06050 
0.06050 
0.05850 
0.05850 
0.07250 
0.07250 
-0.03100 
-0.03100 
0.18800 
0.18800 
0.06850 
0.06850 
0.04100 
0.04100 
-0.04850 
-0.04850 
-0.03650 
-0.03650 
0.01000 
0.01000 
0.09050 
0.09050 
0.02400 
0.02400 
0.07600 
0.07600 
0.04200 
0.04200 
0.04050 
0.04050 
0.15700 
0.15700 
0.07300 
0.07300 
-0.09900 
-0.09900 
0.09650 
0.09650 
-0.01200 
-0.01200 
0.03000 
0.03000 
-0.01000 
-0.01000 
0.04750 
0.04750 
0.09400 
0.09400 
0.09350 
0.09350 
0.03300 
0.03300 
0.03600 
0.03600 
0.08050 
0.08050 
0.05950 
0.05950 
0.05550 
0.05550 
0.10550 
0.10550 
0.01600 
0.01600 
0.05000 
0.05000 
0.07400 
0.07400 
0.04550 
0.04550 
0.07400 
0.07400 
0.00700 
0.00700 
0.07400 
0.07400 
-0.01050 
-0.01050 
0.08100 
0.08100 
0.09250 
0.09250 
0.03100 
0.03100 
0.02800 
0.02800 
0.06600 
0.06600 
0.05300 
0.05300 
-0.02550 
-0.02550 
0.05600 
0.05600 
0.02450 
0.02450 
0.03600 
0.03600 
0.04800 
0.04800 
0.05000 
0.05000 
-0.02600 
-0.02600 
0.02700 
0.02700 
0.06500 
0.06500 
0.05350 
0.05350 
0.06900 
0.06900 
0.11450 
0.11450 
0.04650 
0.04650 
0.00850 
0.00850 
0.09750 
0.09750 
-0.03800 
-0.03800 
0.00900 
0.00900 
0.10400 
0.10400 
0.09400 
0.09400 
0.06350 
0.06350 
-0.01850 
-0.01850 
0.04400 
0.04400 
0.02250 
0.02250 
0.00950 
0.00950 
-0.02000 
-0.02000 
0.00300 
0.00300 
0.14700 
0.14700 
0.11050 
0.11050 
0.11200 
0.11200 
0.04150 
0.04150 
-0.01900 
-0.01900 
0.04150 
0.04150 
0.03800 
0.03800 
0.04600 
0.04600 
-0.08050 
-0.08050 
-0.06800 
-0.06800 
0.11200 
0.11200 
0.01750 
0.01750 
0.05100 
0.05100 
0.06850 
0.06850 
-0.03400 
-0.03400 
0.01850 
0.01850 
0.03850 
0.03850 
0.12700 
0.12700 
0.09500 
0.09500 
0.05900 
0.05900 
-0.03050 
-0.03050 
0.05750 
0.05750 
0.10950 
0.10950 
0.14700 
0.14700 
0.05450 
0.05450 
0.00800 
0.00800 
0.06900 
0.06900 
0.03400 
0.03400 
0.00300 
0.00300 
0.09950 
0.09950 
0.02950 
0.02950 
0.04000 
0.04000 
0.02150 
0.02150 
0.04800 
0.04800 
0.11800 
0.11800 
0.03500 
0.03500 
0.03250 
0.03250 
0.09850 
0.09850 
0.12250 
0.12250 
-0.00550 
-0.00550 
0.00450 
0.00450 
0.06400 
0.06400 
0.03050 
0.03050 
-0.05000 
-0.05000 
0.02750 
0.02750 
-0.00750 
-0.00750 
0.07000 
0.07000 
-0.01450 
-0.01450 
0.07850 
0.07850 
0.08550 
0.08550 
0.08250 
0.08250 
0.02100 
0.02100 
0.04800 
0.04800 
0.00300 
0.00300 
-0.02100 
-0.02100 
0.11250 
0.11250 
-0.02150 
-0.02150 
0.08200 
0.08200 
-0.00100 
-0.00100 
0.05150 
0.05150 
0.04850 
0.04850 
-0.03000 
-0.03000 
0.09950 
0.09950 
0.07700 
0.07700 
-0.00800 
-0.00800 
0.12500 
0.12500 
0.07150 
0.07150 
0.04050 
0.04050 
-0.00750 
-0.00750 
0.05050 
0.05050 
0.09850 
0.09850 
0.00250 
0.00250 
0.17650 
0.17650 
0.09000 
0.09000 
0.09900 
0.09900 
0.07200 
0.07200 
0.12750 
0.12750 
0.12500 
0.12500 
0.00950 
0.00950 
0.06900 
0.06900 
-0.00400 
-0.00400 
0.08600 
0.08600 
0.04550 
0.04550 
0.13300 
0.13300 
0.00400 
0.00400 
0.08000 
0.08000 
-0.01000 
-0.01000 
0.04500 
0.04500 
0.03750 
0.03750 
0.03450 
0.03450 
0.11850 
0.11850 
0.05000 
0.05000 
0.02650 
0.02650 
0.06450 
0.06450 
0.10150 
0.10150 
-0.04400 
-0.04400 
-0.01600 
-0.01600 
0.08050 
0.08050 
0.11150 
0.11150 
-0.10050 
-0.10050 
0.08650 
0.08650 
-0.04150 
-0.04150 
0.10250 
0.10250 
0.00750 
0.00750 
-0.00100 
-0.00100 
0.03650 
0.03650 
0.16550 
0.16550 
0.04900 
0.04900 
0.08400 
0.08400 
0.00400 
0.00400 
0.07450 
0.07450 
0.08300 
0.08300 
-0.04200 
-0.04200 
-0.01550 
-0.01550 
0.11050 
0.11050 
0.13700 
0.13700 
0.02350 
0.02350 
0.05350 
0.05350 
0.10550 
0.10550 
-0.00550 
-0.00550 
-0.02200 
-0.02200 
0.00850 
0.00850 
0.08650 
0.08650 
0.09200 
0.09200 
0.11050 
0.11050 
0.05550 
0.05550 
0.11450 
0.11450 
-0.00400 
-0.00400 
0.10200 
0.10200 
0.04850 
0.04850 
0.06950 
0.06950 
0.06350 
0.06350 
0.04200 
0.04200 
0.04700 
0.04700 
-0.02900 
-0.02900 
0.12400 
0.12400 
0.02200 
0.02200 
0.02900 
0.02900 
0.00350 
0.00350 
-0.04000 
-0.04000 
-0.03350 
-0.03350 
-0.04100 
-0.04100 
0.12750 
0.12750 
0.07550 
0.07550 
0.02100 
0.02100 
0.00700 
0.00700 
0.07200 
0.07200 
0.14950 
0.14950 
0.02100 
0.02100 
0.05600 
0.05600 
0.07100 
0.07100 
0.07050 
0.07050 
0.11850 
0.11850 
0.07550 
0.07550 
0.11000 
0.11000 
-0.04850 
-0.04850 
0.04700 
0.04700 
0.04500 
0.04500 
0.03550 
0.03550 
0.01700 
0.01700 
0.06150 
0.06150 
-0.00750 
-0.00750 
0.07300 
0.07300 
0.16400 
0.16400 
0.12250 
0.12250 
-0.02300 
-0.02300 
0.07250 
0.07250 
-0.01600 
-0.01600 
0.09000 
0.09000 
0.07050 
0.07050 
-0.03350 
-0.03350 
0.10650 
0.10650 
0.05150 
0.05150 
-0.04200 
-0.04200 
0.01300 
0.01300 
-0.05950 
-0.05950 
0.08300 
0.08300 
0.07000 
0.07000 
0.08750 
0.08750 
0.06400 
0.06400 
0.08650 
0.08650 
-0.03200 
-0.03200 
-0.04450 
-0.04450 
0.06450 
0.06450 
0.02050 
0.02050 
0.00750 
0.00750 
0.07250 
0.07250 
-0.02700 
-0.02700 
0.00500 
0.00500 
0.07250 
0.07250 
0.01550 
0.01550 
0.02200 
0.02200 
0.06100 
0.06100 
0.01650 
0.01650 
-0.00450 
-0.00450 
0.06500 
0.06500 
-0.02450 
-0.02450 
0.01750 
0.01750 
0.08450 
0.08450 
0.09600 
0.09600 
0.06500 
0.06500 
0.08200 
0.08200 
-0.01200 
-0.01200 
-0.00500 
-0.00500 
0.03800 
0.03800 
0.08800 
0.08800 
0.01750 
0.01750 
0.16900 
0.16900 
0.09300 
0.09300 
0.10250 
0.10250 
-0.02150 
-0.02150 
-0.08850 
-0.08850 
0.01950 
0.01950 
-0.03500 
-0.03500 
0.07400 
0.07400 
0.07450 
0.07450 
0.20900 
0.20900 
0.02800 
0.02800 
0.17150 
0.17150 
-0.00750 
-0.00750 
0.02650 
0.02650 
0.10100 
0.10100 
0.00250 
0.00250 
0.08050 
0.08050 
0.01800 
0.01800 
0.05300 
0.05300 
0.05400 
0.05400 
0.04100 
0.04100 
0.03750 
0.03750 
0.17700 
0.17700 
0.07200 
0.07200 
0.14600 
0.14600 
0.04250 
0.04250 
0.06050 
0.06050 
0.04050 
0.04050 
0.00900 
0.00900 
-0.03250 
-0.03250 
0.02650 
0.02650 
0.10900 
0.10900 
0.10100 
0.10100 
-0.03750 
-0.03750 
0.02200 
0.02200 
0.13300 
0.13300 
0.02800 
0.02800 
0.07000 
0.07000 
0.12250 
0.12250 
0.02000 
0.02000 
-0.01650 
-0.01650 
-0.00950 
-0.00950 
0.03950 
0.03950 
0.02600 
0.02600 
0.06300 
0.06300 
0.00900 
0.00900 
0.05450 
0.05450 
0.11100 
0.11100 
0.13300 
0.13300 
0.02400 
0.02400 
0.02700 
0.02700 
0.07500 
0.07500 
-0.00750 
-0.00750 
-0.00700 
-0.00700 
SCALARS Umean_Y double 1 
LOOKUP_TABLE default
0.09500 
0.09500 
0.02600 
0.02600 
0.08700 
0.08700 
0.12150 
0.12150 
0.10000 
0.10000 
0.11250 
0.11250 
0.07950 
0.07950 
0.12750 
0.12750 
0.08450 
0.08450 
0.16200 
0.16200 
0.11000 
0.11000 
0.10150 
0.10150 
0.08450 
0.08450 
0.05650 
0.05650 
0.03650 
0.03650 
0.03100 
0.03100 
0.07800 
0.07800 
0.11850 
0.11850 
0.13800 
0.13800 
0.08500 
0.08500 
0.12800 
0.12800 
0.13650 
0.13650 
0.12450 
0.12450 
0.02650 
0.02650 
0.04600 
0.04600 
0.09600 
0.09600 
0.11950 
0.11950 
0.09500 
0.09500 
0.10500 
0.10500 
0.14500 
0.14500 
0.13450 
0.13450 
0.09450 
0.09450 
0.10950 
0.10950 
-0.04000 
-0.04000 
0.07150 
0.07150 
0.02850 
0.02850 
0.09150 
0.09150 
0.13350 
0.13350 
0.05600 
0.05600 