# vtk DataFile Version 2.1 
Trajects from timestep 50 with color option 
ASCII 
 
DATASET POLYDATA POINTS 1046 float 
-2.637 3.145 -72.510 
-2.555 3.324 -72.628 
1.172 4.588 -70.108 
1.108 4.719 -70.230 
3.613 4.056 -70.053 
3.613 4.229 -70.223 
5.377 2.894 -69.195 
5.416 2.981 -69.291 
-5.561 8.087 -73.116 
-5.618 8.213 -73.210 
8.417 3.634 -69.326 
8.442 3.815 -69.439 
-4.221 -7.699 -72.962 
-4.096 -7.607 -72.963 
1.554 1.654 -70.272 
1.665 1.788 -70.493 
5.516 9.033 -71.002 
5.431 9.134 -71.112 
3.975 10.015 -74.107 
3.762 10.124 -74.250 
0.865 -2.763 -70.271 
0.917 -2.499 -70.304 
5.919 7.151 -70.750 
5.745 7.221 -70.811 
-4.128 -9.556 -76.618 
-4.053 -9.469 -76.639 
-7.768 7.993 -72.330 
-7.853 8.127 -72.576 
-0.447 0.354 -72.366 
-0.344 0.494 -72.492 
7.320 5.320 -67.224 
7.399 5.400 -67.266 
5.291 4.925 -68.350 
5.350 5.016 -68.438 
-1.191 9.495 -68.115 
-1.307 9.648 -68.115 
-4.190 -3.190 -68.559 
-4.101 -3.056 -68.372 
-8.256 2.318 -72.643 
-8.277 2.293 -72.573 
0.931 12.460 -71.279 
0.800 12.485 -71.240 
-0.371 -0.774 -70.816 
-0.315 -0.454 -70.892 
-7.691 5.275 -69.677 
-7.629 5.316 -69.804 
9.084 -4.041 -70.543 
9.082 -3.991 -70.674 
-2.908 -1.718 -73.887 
-2.887 -1.568 -73.822 
6.935 3.757 -71.631 
6.777 3.740 -71.735 
8.060 4.456 -68.890 
8.046 4.590 -68.980 
12.564 -2.980 -69.405 
12.621 -2.814 -69.488 
0.081 -4.984 -68.425 
0.357 -4.606 -68.565 
-8.523 -6.737 -65.852 
-8.506 -6.431 -65.798 
4.798 -3.258 -66.978 
4.939 -3.028 -67.095 
1.492 -2.795 -70.820 
1.476 -2.559 -70.848 
7.156 12.049 -70.662 
7.122 12.051 -70.861 
-2.430 0.880 -71.858 
-2.290 1.069 -71.924 
8.467 11.208 -70.033 
8.444 11.302 -70.170 
2.772 9.336 -64.292 
2.789 9.700 -64.356 
12.697 1.506 -70.190 
12.744 1.678 -70.326 
-12.930 2.220 -70.901 
-12.845 2.253 -70.954 
-5.845 -1.456 -70.258 
-5.794 -1.374 -70.200 
9.525 -7.396 -72.080 
9.501 -7.273 -72.150 
-3.319 6.999 -71.263 
-3.424 7.165 -71.410 
9.442 11.866 -68.564 
9.460 11.839 -68.675 
3.240 10.102 -70.036 
3.117 10.053 -70.057 
-5.424 3.633 -63.262 
-5.294 4.008 -63.244 
1.246 11.873 -65.314 
1.167 12.079 -65.386 
7.094 9.647 -71.519 
6.980 9.723 -71.592 
-5.576 -1.872 -68.347 
-5.572 -1.673 -68.204 
3.800 11.624 -67.945 
3.789 11.833 -68.032 
-11.768 -10.299 -69.426 
-11.743 -9.958 -69.441 
2.594 -3.936 -66.423 
2.732 -3.636 -66.555 
-8.998 3.162 -65.868 
-8.964 3.434 -65.743 
-3.222 5.354 -69.349 
-3.218 5.610 -69.478 
-11.530 5.669 -72.294 
-11.603 5.740 -72.327 
5.900 -3.998 -66.787 
5.961 -3.858 -66.927 
-6.047 2.166 -73.006 
-6.024 2.265 -73.035 
6.513 2.870 -73.498 
6.444 2.783 -73.712 
15.082 4.028 -71.479 
14.968 4.173 -71.667 
7.338 -4.045 -71.581 
7.302 -3.976 -71.659 
3.266 10.655 -68.494 
3.270 10.867 -68.556 
8.869 7.971 -67.787 
8.787 8.101 -67.907 
1.180 7.640 -71.415 
1.030 7.787 -71.543 
-0.723 0.990 -65.532 
-0.508 1.356 -65.678 
6.507 2.439 -65.674 
6.645 2.625 -65.673 
-4.957 -1.472 -68.385 
-4.909 -1.252 -68.272 
11.096 -3.824 -70.227 
11.079 -3.807 -70.336 
3.143 -9.653 -75.388 
3.205 -9.644 -75.272 
-1.601 5.865 -64.064 
-1.584 6.175 -64.159 
1.487 -2.927 -66.166 
1.645 -2.742 -66.380 
12.973 -0.879 -69.890 
13.034 -0.682 -70.069 
-10.345 4.868 -67.747 
-10.327 5.037 -67.881 
-12.643 1.689 -70.973 
-12.607 1.704 -71.031 
-14.833 -5.346 -75.740 
-14.786 -5.259 -75.854 
9.480 5.316 -67.175 
9.484 5.475 -67.298 
-1.605 -0.255 -71.676 
-1.476 -0.054 -71.867 
6.730 -1.476 -66.548 
6.912 -1.229 -66.815 
-8.363 12.034 -72.448 
-8.462 12.140 -72.469 
9.579 -1.805 -70.213 
9.663 -1.726 -70.390 
-5.888 4.863 -70.291 
-5.818 4.923 -70.446 
4.985 8.279 -70.701 
4.944 8.329 -70.776 
-8.339 10.693 -74.366 
-8.317 10.809 -74.395 
-12.479 8.268 -76.059 
-12.586 8.267 -76.135 
-11.547 3.194 -69.481 
-11.458 3.213 -69.589 
-6.271 1.194 -67.491 
-6.278 1.472 -67.543 
12.342 10.706 -68.702 
12.204 10.761 -68.925 
-8.603 -10.633 -69.049 
-8.498 -10.402 -68.946 
-8.983 -9.307 -68.762 
-8.910 -9.156 -68.738 
-11.908 0.098 -68.834 
-11.833 0.161 -68.808 
-8.613 -1.773 -66.593 
-8.583 -1.674 -66.295 
-0.884 8.149 -72.810 
-1.023 8.088 -72.954 
8.434 -4.243 -73.534 
8.393 -4.169 -73.648 
1.890 6.036 -68.565 
1.891 6.233 -68.610 
-1.938 11.559 -62.510 
-1.996 11.752 -62.391 
1.837 -8.806 -73.013 
1.904 -8.609 -72.977 
-7.332 -5.199 -63.425 
-7.374 -5.062 -63.305 
8.005 5.606 -61.204 
8.035 5.882 -61.218 
-8.459 -2.659 -65.874 
-8.391 -2.533 -65.658 
7.278 -4.946 -69.059 
7.392 -4.739 -69.064 
-14.660 -10.191 -76.213 
-14.703 -10.160 -76.065 
2.223 12.228 -69.077 
2.080 12.354 -69.225 
7.120 10.989 -72.217 
6.868 11.005 -72.439 
-5.811 -2.693 -66.283 
-5.741 -2.433 -66.021 
-1.032 6.749 -64.310 
-0.958 7.069 -64.201 
11.717 -1.337 -69.039 
11.830 -1.233 -69.142 
7.059 -1.097 -71.986 
7.106 -0.994 -72.193 
15.330 5.024 -72.274 
15.178 5.178 -72.392 
-11.417 -3.856 -68.629 
-11.308 -3.655 -68.586 
-7.400 1.279 -68.729 
-7.347 1.455 -68.755 
0.497 -3.865 -65.076 
0.739 -3.640 -65.191 
-1.826 4.700 -67.254 
-1.779 4.925 -67.455 
-4.061 1.186 -73.022 
-4.007 1.360 -73.043 
-7.916 3.082 -64.686 
-7.909 3.366 -64.726 
-6.203 -8.036 -66.565 
-6.206 -7.838 -66.811 
-3.215 -3.810 -69.604 
-3.168 -3.690 -69.490 
5.508 -8.224 -61.995 
5.549 -7.939 -62.129 
8.349 -12.349 -65.612 
8.589 -12.180 -65.497 
-6.373 9.701 -65.867 
-6.402 9.911 -65.967 
0.605 -7.746 -68.115 
0.738 -7.475 -68.231 
2.403 7.280 -64.612 
2.471 7.583 -64.651 
-9.728 -7.034 -69.623 
-9.665 -6.669 -69.515 
0.470 -9.825 -76.429 
0.623 -9.802 -76.490 
-0.842 0.156 -63.171 
-0.626 0.449 -63.294 
-7.357 3.086 -63.878 
-7.290 3.287 -63.819 
13.345 -3.538 -70.426 
13.386 -3.425 -70.513 
-0.233 1.903 -72.449 
-0.205 2.059 -72.664 
-10.904 -4.445 -68.666 
-10.796 -4.295 -68.579 
-7.866 -2.474 -67.028 
-7.829 -2.367 -66.848 
14.571 -3.614 -72.814 
14.509 -3.536 -72.926 
9.067 10.649 -68.289 
8.959 10.664 -68.439 
9.185 9.680 -64.179 
9.120 9.884 -64.195 
-0.870 1.695 -72.892 
-0.762 1.859 -73.093 
-4.932 6.885 -74.460 
-4.930 6.956 -74.527 
-11.775 9.884 -65.814 
-11.741 9.917 -65.843 
5.410 9.114 -73.509 
5.298 9.171 -73.663 
-4.566 1.799 -69.083 
-4.493 1.882 -69.067 
-6.000 9.600 -63.715 
-5.967 9.837 -63.770 
-13.024 10.819 -65.220 
-13.016 10.882 -65.200 
16.758 -0.444 -68.742 
16.824 -0.259 -68.907 
-10.397 -3.530 -66.676 
-10.357 -3.340 -66.382 
14.060 -5.587 -71.469 
14.123 -5.496 -71.515 
11.988 -4.117 -70.533 
12.013 -4.072 -70.601 
10.907 11.151 -66.950 
10.845 11.047 -66.964 
-8.630 -1.080 -66.465 
-8.350 -0.861 -66.339 
-4.119 3.056 -68.541 
-4.084 3.298 -68.646 
-7.320 -7.504 -66.549 
-7.352 -7.091 -66.506 
-10.608 7.799 -64.959 
-10.519 7.966 -65.122 
-7.284 -4.491 -66.098 
-7.243 -4.289 -65.940 
-6.350 10.825 -62.361 
-6.382 11.019 -62.033 
4.156 -5.188 -64.434 
4.344 -4.969 -64.662 
16.654 7.432 -66.294 
16.752 7.464 -66.479 
-15.549 12.023 -73.018 
-15.639 12.057 -73.075 
4.926 -10.004 -65.344 
5.128 -9.805 -65.325 
7.249 3.459 -63.537 
7.273 3.609 -63.451 
-6.980 -1.073 -72.742 
-6.933 -1.017 -72.738 
-6.370 1.118 -68.539 
-6.281 1.256 -68.712 
-4.247 -7.113 -72.743 
-4.116 -6.952 -72.707 
-5.246 -1.496 -72.924 
-5.160 -1.348 -72.911 
17.987 1.990 -69.012 
18.013 2.129 -69.181 
-12.381 -7.037 -67.580 
-12.297 -6.906 -67.498 
2.921 -9.501 -64.912 
2.904 -9.279 -65.197 
-2.599 2.891 -66.528 
-2.459 3.038 -66.538 
16.946 9.095 -67.937 
16.970 9.142 -68.243 
5.584 -7.282 -63.763 
5.707 -7.030 -64.042 
-1.001 -12.455 -69.151 
-0.869 -12.385 -69.336 
0.190 10.904 -69.463 
-0.005 11.014 -69.572 
-2.829 -11.487 -73.916 
-2.617 -11.441 -74.052 
12.229 -1.000 -70.216 
12.282 -0.892 -70.365 
-12.351 4.625 -69.139 
-12.326 4.569 -69.156 
17.519 9.399 -72.229 
17.468 9.319 -72.418 
1.521 -4.262 -64.991 
1.656 -4.018 -65.138 
0.885 -11.159 -61.565 
1.067 -10.872 -61.843 
2.547 -12.321 -65.188 
2.614 -12.279 -65.446 
9.764 -6.384 -65.075 
9.898 -6.289 -64.982 
5.741 -10.883 -64.480 
5.836 -10.824 -64.446 
3.122 1.319 -65.845 
3.279 1.569 -65.923 
-3.122 9.151 -66.608 
-3.211 9.383 -66.660 
-10.265 -5.639 -67.973 
-10.171 -5.405 -67.868 
13.354 -6.161 -72.527 
13.378 -6.056 -72.517 
-4.326 -4.761 -71.315 
-4.250 -4.622 -71.229 
-2.048 -9.341 -61.345 
-1.985 -9.070 -61.446 
-6.554 11.801 -70.413 
-6.549 12.123 -70.630 
-2.640 12.343 -72.072 
-2.549 12.372 -72.114 
-2.985 10.159 -63.378 
-3.113 10.365 -63.351 
-9.563 3.690 -66.980 
-9.540 3.960 -66.952 
2.296 12.458 -63.982 
2.178 12.599 -64.213 
-2.854 8.260 -72.820 
-3.021 8.376 -72.975 
-6.977 -3.095 -66.077 
-6.900 -2.927 -65.884 
-15.908 10.971 -72.572 
-16.065 10.989 -72.490 
14.152 -2.090 -69.265 
14.199 -1.870 -69.316 
6.439 5.123 -61.172 
6.473 5.465 -61.077 
12.656 -4.202 -69.511 
12.758 -4.019 -69.604 
14.012 2.738 -71.273 
13.966 2.856 -71.457 
1.569 -11.863 -64.748 
1.625 -11.700 -65.082 
-8.251 7.936 -65.317 
-8.263 8.119 -65.356 
13.899 9.889 -71.922 
13.774 9.964 -72.127 
13.006 9.077 -65.096 
13.083 9.213 -65.234 
-3.231 -9.039 -60.208 
-3.127 -8.878 -60.287 
4.083 -11.030 -66.563 
4.279 -10.860 -66.574 
11.472 1.310 -66.229 
11.541 1.613 -66.310 
11.067 10.763 -71.683 
10.978 10.750 -71.834 
-11.216 -3.955 -64.711 
-11.326 -3.757 -64.643 
5.393 -9.939 -67.957 
5.779 -9.883 -68.142 
8.181 -3.824 -75.315 
8.222 -3.803 -75.368 
6.440 10.369 -69.482 
6.318 10.545 -69.617 
-9.449 -2.269 -68.184 
-9.326 -2.184 -68.231 
-9.995 -3.329 -66.208 
-9.888 -3.182 -66.077 
-11.950 8.868 -75.405 
-12.047 8.917 -75.494 
9.461 10.067 -69.860 
9.373 9.998 -69.914 
10.610 8.871 -71.522 
10.523 8.848 -71.738 
16.996 -6.770 -72.672 
16.862 -6.790 -72.895 
15.739 -10.689 -71.419 
15.712 -10.503 -71.477 
9.657 4.782 -63.582 
9.719 5.067 -63.612 
-10.137 6.714 -66.830 
-10.056 6.830 -67.037 
7.481 0.281 -61.162 
7.507 0.582 -61.301 
-6.785 7.524 -65.071 
-6.750 7.848 -65.140 
-10.401 4.521 -64.758 
-10.394 4.675 -64.857 
4.399 3.832 -71.104 
4.429 3.966 -71.219 
2.779 11.891 -68.724 
2.664 12.069 -68.846 
-7.122 -5.791 -69.578 
-6.920 -5.548 -69.537 
-13.891 -6.953 -71.746 
-13.871 -6.864 -71.807 
8.144 7.022 -63.776 
8.226 7.178 -63.781 
10.726 2.825 -62.945 
[...]
POINT_DATA 1046 
SCALARS Umean double 1 
LOOKUP_TABLE default
0.11477 
0.11477 
0.09505 
0.09505 
0.12127 
0.12127 
0.06765 
0.06765 
0.08361 
0.08361 
0.10742 
0.10742 
0.07760 
0.07760 
0.14064 
0.14064 
0.08592 
0.08592 
0.13937 
0.13937 
0.13554 
0.13554 
0.09861 
0.09861 
0.05838 
0.05838 
0.14637 
0.14637 
0.10734 
0.10734 
0.06001 
0.06001 
0.06983 
0.06983 
0.09600 
0.09600 
0.12333 
0.12333 
0.03862 
0.03862 
0.06947 
0.06947 
0.16682 
0.16682 
0.07358 
0.07358 
0.07012 
0.07012 
0.08241 
0.08241 
0.09496 
0.09496 
0.08101 
0.08101 
0.09707 
0.09707 
0.24426 
0.24426 
0.15560 
0.15560 
0.14703 
0.14703 
0.11910 
0.11910 
0.10095 
0.10095 
0.12214 
0.12214 
0.08387 
0.08387 
0.18499 
0.18499 
0.11213 
0.11213 
0.05273 
0.05273 
0.05632 
0.05632 
0.07177 
0.07177 
0.12267 
0.12267 
0.05782 
0.05782 
0.06703 
0.06703 
0.19865 
0.19865 
0.11604 
0.11604 
0.07762 
0.07762 
0.12254 
0.12254 
0.11333 
0.11333 
0.17112 
0.17112 
0.17781 
0.17781 
0.15064 
0.15064 
0.14335 
0.14335 
0.05352 
0.05352 
0.10359 
0.10359 
0.05285 
0.05285 
0.12055 
0.12055 
0.13169 
0.13169 
0.05509 
0.05509 
0.11046 
0.11046 
0.09750 
0.09750 
0.12298 
0.12298 
0.22444 
0.22444 
0.11580 
0.11580 
0.12597 
0.12597 
0.05581 
0.05581 
0.06592 
0.06592 
0.16234 
0.16234 
0.16201 
0.16201 
0.13654 
0.13654 
0.10821 
0.10821 
0.03495 
0.03495 
0.07546 
0.07546 
0.10053 
0.10053 
0.15291 
0.15291 
0.20336 
0.20336 
0.07328 
0.07328 
0.10562 
0.10562 
0.09017 
0.09017 
0.04951 
0.04951 
0.06079 
0.06079 
0.06562 
0.06562 
0.07062 
0.07062 
0.14145 
0.14145 
0.13398 
0.13398 
0.13693 
0.13693 
0.08471 
0.08471 
0.05067 
0.05067 
0.15772 
0.15772 
0.10462 
0.10462 
0.07098 
0.07098 
0.10104 
0.10104 
0.11702 
0.11702 
0.10559 
0.10559 
0.09345 
0.09345 
0.13899 
0.13899 
0.12957 
0.12957 
0.11818 
0.11818 
0.07860 
0.07860 
0.12065 
0.12065 
0.16811 
0.16811 
0.18785 
0.18785 
0.17303 
0.17303 
0.09246 
0.09246 
0.11797 
0.11797 
0.12323 
0.12323 
0.11633 
0.11633 
0.09282 
0.09282 
0.17494 
0.17494 
0.15267 
0.15267 
0.09170 
0.09170 
0.14344 
0.14344 
0.15790 
0.15790 
0.08603 
0.08603 
0.15879 
0.15879 
0.15763 
0.15763 
0.11720 
0.11720 
0.16170 
0.16170 
0.15649 
0.15649 
0.19291 
0.19291 
0.08315 
0.08315 
0.19212 
0.19212 
0.10997 
0.10997 
0.07419 
0.07419 
0.13355 
0.13355 
0.10214 
0.10214 
0.10632 
0.10632 
0.07495 
0.07495 
0.09272 
0.09272 
0.10735 
0.10735 
0.14050 
0.14050 
0.04882 
0.04882 
0.02778 
0.02778 
0.09938 
0.09938 
0.05584 
0.05584 
0.12276 
0.12276 
0.03329 
0.03329 
0.12826 
0.12826 
0.17616 
0.17616 
0.05993 
0.05993 
0.04264 
0.04264 
0.06094 
0.06094 
0.18857 
0.18857 
0.13305 
0.13305 
0.20823 
0.20823 
0.12488 
0.12488 
0.12985 
0.12985 
0.19121 
0.19121 
0.18391 
0.18391 
0.10589 
0.10589 
0.05591 
0.05591 
0.14210 
0.14210 
0.08728 
0.08728 
0.03661 
0.03661 
0.11926 
0.11926 
0.10533 
0.10533 
0.08583 
0.08583 
0.11018 
0.11018 
0.08795 
0.08795 
0.18083 
0.18083 
0.10162 
0.10162 
0.15526 
0.15526 
0.19778 
0.19778 
0.11890 
0.11890 
0.12451 
0.12451 
0.12802 
0.12802 
0.09575 
0.09575 
0.03182 
0.03182 
0.10574 
0.10574 
0.15762 
0.15762 
0.21953 
0.21953 
0.13492 
0.13492 
0.09438 
0.09438 
0.05844 
0.05844 
0.15267 
0.15267 
0.12693 
0.12693 
0.13658 
0.13658 
0.05409 
0.05409 
0.09013 
0.09013 
0.14800 
0.14800 
0.19416 
0.19416 
0.05217 
0.05217 
0.12201 
0.12201 
0.13621 
0.13621 
0.14762 
0.14762 
0.12784 
0.12784 
0.13361 
0.13361 
0.08902 
0.08902 
0.11534 
0.11534 
0.17829 
0.17829 
0.11461 
0.11461 
0.11169 
0.11169 
0.18792 
0.18792 
0.09375 
0.09375 
0.12577 
0.12577 
0.10425 
0.10425 
0.10366 
0.10366 
0.12984 
0.12984 
0.16057 
0.16057 
0.08788 
0.08788 
0.11825 
0.11825 
0.21585 
0.21585 
0.03511 
0.03511 
0.12658 
0.12658 
0.07836 
0.07836 
0.11205 
0.11205 
0.07023 
0.07023 
0.06209 
0.06209 
0.11700 
0.11700 
0.13047 
0.13047 
0.09835 
0.09835 
0.14660 
0.14660 
0.12537 
0.12537 
0.16628 
0.16628 
0.16655 
0.16655 
0.09161 
0.09161 
0.08956 
0.08956 
0.12226 
0.12226 
0.15932 
0.15932 
0.05487 
0.05487 
0.08815 
0.08815 
0.16324 
0.16324 
0.10336 
0.10336 
0.12651 
0.12651 
0.15501 
0.15501 
0.12152 
0.12152 
0.14308 
0.14308 
0.11359 
0.11359 
0.17496 
0.17496 
0.17630 
0.17630 
0.16128 
0.16128 
0.11870 
0.11870 
0.11305 
0.11305 
0.09201 
0.09201 
0.06034 
0.06034 
0.11192 
0.11192 
0.17911 
0.17911 
0.07251 
0.07251 
0.09037 
0.09037 
0.13631 
0.13631 
0.04275 
0.04275 
0.10706 
0.10706 
0.07872 
0.07872 
0.06583 
0.06583 
0.03041 
0.03041 
0.12881 
0.12881 
0.01670 
0.01670 
0.09581 
0.09581 
0.09838 
0.09838 
0.07960 
0.07960 
0.16575 
0.16575 
0.09410 
0.09410 
0.02635 
0.02635 
0.12509 
0.12509 
0.06272 
0.06272 
0.05963 
0.05963 
0.05330 
0.05330 
0.06188 
0.06188 
0.10025 
0.10025 
0.09490 
0.09490 
0.12873 
0.12873 
0.08093 
0.08093 
0.21807 
0.21807 
0.04381 
0.04381 
0.18239 
0.18239 
0.15303 
0.15303 
0.13732 
0.13732 
0.06580 
0.06580 
0.04237 
0.04237 
0.12436 
0.12436 
0.02968 
0.02968 
0.10614 
0.10614 
0.11574 
0.11574 
0.07551 
0.07551 
0.15931 
0.15931 
0.08115 
0.08115 
0.15437 
0.15437 
0.05024 
0.05024 
0.12687 
0.12687 
0.10633 
0.10633 
0.14808 
0.14808 
0.06890 
0.06890 
0.13928 
0.13928 
0.04949 
0.04949 
0.12799 
0.12799 
0.11293 
0.11293 
0.05757 
0.05757 
0.15899 
0.15899 
0.15978 
0.15978 
0.09271 
0.09271 
0.12012 
0.12012 
0.07603 
0.07603 
0.02879 
0.02879 
0.07140 
0.07140 
0.12785 
0.12785 
0.13431 
0.13431 
0.13227 
0.13227 
0.03430 
0.03430 
0.12215 
0.12215 
0.09951 
0.09951 
0.03729 
0.03729 
0.10077 
0.10077 
0.05566 
0.05566 
0.19054 
0.19054 
0.06941 
0.06941 
0.12439 
0.12439 
0.10061 
0.10061 
0.07911 
0.07911 
0.11578 
0.11578 
0.03619 
0.03619 
0.06014 
0.06014 
0.04710 
0.04710 
0.08295 
0.08295 
0.10206 
0.10206 
0.06918 
0.06918 
0.12295 
0.12295 
0.20444 
0.20444 
0.09657 
0.09657 
0.05751 
0.05751 
0.23422 
0.23422 
0.08673 
0.08673 
0.08522 
0.08522 
0.17917 
0.17917 
0.11443 
0.11443 
0.11377 
0.11377 
0.05436 
0.05436 
0.13472 
0.13472 
0.07482 
0.07482 
0.12898 
0.12898 
0.07536 
0.07536 
0.12423 
0.12423 
0.08963 
0.08963 
0.07736 
0.07736 
0.02732 
0.02732 
0.08256 
0.08256 
0.21960 
0.21960 
0.17482 
0.17482 
0.12600 
0.12600 
0.17366 
0.17366 
0.17820 
0.17820 
0.08502 
0.08502 
0.06973 
0.06973 
0.13095 
0.13095 
0.17964 
0.17964 
0.15997 
0.15997 
0.08318 
0.08318 
0.20933 
0.20933 
0.14153 
0.14153 
0.10454 
0.10454 
0.11413 
0.11413 
0.08760 
0.08760 
0.15161 
0.15161 
0.16549 
0.16549 
0.20794 
0.20794 
0.13507 
0.13507 
0.19680 
0.19680 
0.03473 
0.03473 
0.05665 
0.05665 
0.11866 
0.11866 
0.12350 
0.12350 
0.20041 
0.20041 
0.06369 
0.06369 
0.22946 
0.22946 
0.17599 
0.17599 
0.18739 
0.18739 
0.05887 
0.05887 
0.10089 
0.10089 
0.05271 
0.05271 
0.13661 
0.13661 
0.14966 
0.14966 
0.07922 
0.07922 
0.04896 
0.04896 
0.09328 
0.09328 
0.07848 
0.07848 
0.06547 
0.06547 
0.15648 
0.15648 
0.06148 
0.06148 
0.11218 
0.11218 
0.14531 
0.14531 
0.16572 
0.16572 
0.07081 
0.07081 
0.13938 
0.13938 
0.16666 
0.16666 
0.16872 
0.16872 
0.14390 
0.14390 
0.12254 
0.12254 
0.12569 
0.12569 
0.12492 
0.12492 
0.19393 
0.19393 
0.14604 
0.14604 
0.13618 
0.13618 
0.12702 
0.12702 
0.03843 
0.03843 
0.10856 
0.10856 
0.04303 
0.04303 
0.17715 
0.17715 
0.18132 
0.18132 
0.10492 
0.10492 
0.08365 
0.08365 
0.05578 
0.05578 
0.13440 
0.13440 
0.16321 
0.16321 
0.09796 
0.09796 
0.10585 
0.10585 
0.18549 
0.18549 
0.22321 
0.22321 
0.06350 
0.06350 
0.13745 
0.13745 
0.15301 
0.15301 
0.13943 
0.13943 
0.15921 
0.15921 
0.10557 
0.10557 
0.14173 
0.14173 
0.14953 
0.14953 
0.12240 
0.12240 
0.11053 
0.11053 
0.15285 
0.15285 
0.20477 
0.20477 
0.06027 
0.06027 
0.17074 
0.17074 
0.11775 
0.11775 
0.10836 
0.10836 
0.12223 
0.12223 
0.24991 
0.24991 
0.14109 
0.14109 
0.13992 
0.13992 
0.16627 
0.16627 
0.13525 
0.13525 
0.11369 
0.11369 
0.10719 
0.10719 
0.14543 
0.14543 
0.08103 
0.08103 
0.07263 
0.07263 
0.05872 
0.05872 
0.03057 
0.03057 
0.13236 
0.13236 
0.17490 
0.17490 
0.10763 
0.10763 
0.13195 
0.13195 
0.06353 
0.06353 
0.07339 
0.07339 
0.03440 
0.03440 
0.09208 
0.09208 
0.16451 
0.16451 
0.13989 
0.13989 
0.10050 
0.10050 
0.07698 
0.07698 
0.12478 
0.12478 
0.10961 
0.10961 
0.05936 
0.05936 
0.19994 
0.19994 
0.19062 
0.19062 
0.13525 
0.13525 
0.11695 
0.11695 
0.14490 
0.14490 
0.15001 
0.15001 
0.12040 
0.12040 
0.15195 
0.15195 
0.15753 
0.15753 
0.30004 
0.30004 
0.10645 
0.10645 
0.07663 
0.07663 
0.08946 
0.08946 
0.09100 
0.09100 
0.08050 
0.08050 
0.05973 
0.05973 
0.15860 
0.15860 
0.05003 
0.05003 
0.15516 
0.15516 
0.12023 
0.12023 
0.09186 
0.09186 
0.04481 
0.04481 
0.17942 
0.17942 
0.14276 
0.14276 
0.11629 
0.11629 
0.15899 
0.15899 
0.05061 
0.05061 
0.20003 
0.20003 
0.03954 
0.03954 
0.11927 
0.11927 
0.09333 
0.09333 
0.08768 
0.08768 
0.11436 
0.11436 
0.06667 
0.06667 
0.09395 
0.09395 
0.18757 
0.18757 
0.13423 
0.13423 
0.03078 
0.03078 
0.05872 
0.05872 
0.11114 
0.11114 
0.14022 
0.14022 
0.04509 
0.04509 
0.04970 
0.04970 
0.08100 
0.08100 
0.19054 
0.19054 
0.12738 
0.12738 
0.11483 
0.11483 
0.12062 
0.12062 
0.11131 
0.11131 
0.10105 
0.10105 
0.08037 
0.08037 
0.14793 
0.14793 
0.13957 
0.13957 
0.09792 
0.09792 
0.09994 
0.09994 
0.04646 
0.04646 
0.14840 
0.14840 
0.14082 
0.14082 
0.09076 
0.09076 
0.04001 
0.04001 
0.06475 
0.06475 
0.11931 
0.11931 
0.17294 
0.17294 
0.04883 
0.04883 
0.22463 
0.22463 
0.11287 
0.11287 
0.13757 
0.13757 
0.08535 
0.08535 
0.03729 
0.03729 
0.08266 
0.08266 
0.14458 
0.14458 
0.09635 
0.09635 
0.14554 
0.14554 
0.10099 
0.10099 
SCALARS Umean_X double 1 
LOOKUP_TABLE default
0.04100 
0.04100 
-0.03200 
-0.03200 
-0.00000 
-0.00000 
0.01950 
0.01950 
-0.02850 
-0.02850 
0.01250 
0.01250 
0.06250 
0.06250 
0.05550 
0.05550 
-0.04250 
-0.04250 
-0.10650 
-0.10650 
0.02600 
0.02600 
-0.08700 
-0.08700 
0.03750 
0.03750 
-0.04250 
-0.04250 
0.05150 
0.05150 
0.03950 
0.03950 
0.02950 
0.02950 
-0.05800 
-0.05800 
0.04450 
0.04450 
-0.01050 
-0.01050 
-0.06550 
-0.06550 
0.02800 
0.02800 
0.03100 
0.03100 
-0.00100 
-0.00100 
0.01050 
0.01050 
-0.07900 
-0.07900 
-0.00700 
-0.00700 
0.02850 
0.02850 
0.13800 
0.13800 
0.00850 
0.00850 
0.07050 
0.07050 
-0.00800 
-0.00800 
-0.01700 
-0.01700 
0.07000 
0.07000 
-0.01150 
-0.01150 
0.00850 
0.00850 
0.02350 
0.02350 
0.04250 
0.04250 
0.02550 
0.02550 
-0.01200 
-0.01200 
-0.05250 
-0.05250 
0.00900 
0.00900 
-0.06150 
-0.06150 
0.06500 
0.06500 
-0.03950 
-0.03950 
-0.05700 
-0.05700 
0.00200 
0.00200 
-0.00550 
-0.00550 
0.01250 
0.01250 
0.06900 
0.06900 
0.01700 
0.01700 
0.00200 
0.00200 
-0.03650 
-0.03650 
0.03050 
0.03050 
0.01150 
0.01150 
-0.03450 
-0.03450 
-0.05700 
-0.05700 
-0.01800 
-0.01800 
0.00200 
0.00200 
-0.04100 
-0.04100 
-0.07500 
-0.07500 
0.10750 
0.10750 
0.06900 
0.06900 
0.02400 
0.02400 
-0.00850 
-0.00850 
0.03100 
0.03100 
0.00850 
0.00850 
0.07900 
0.07900 
0.03050 
0.03050 
0.00900 
0.00900 
0.01800 
0.01800 
0.02350 
0.02350 
0.00200 
0.00200 
0.06450 
0.06450 
0.09100 
0.09100 
-0.04950 
-0.04950 
0.04200 
0.04200 
0.03500 
0.03500 
-0.02050 
-0.02050 
0.01100 
0.01100 
-0.05350 
-0.05350 
0.04450 
0.04450 
-0.00350 
-0.00350 
-0.06900 
-0.06900 
0.05250 
0.05250 
0.03650 
0.03650 
0.03750 
0.03750 
0.01500 
0.01500 
-0.06950 
-0.06950 
-0.02050 
-0.02050 
0.00050 
0.00050 
-0.02900 
-0.02900 
0.03350 
0.03350 
-0.02100 
-0.02100 
0.01500 
0.01500 
0.03400 
0.03400 
0.05700 
0.05700 
-0.02150 
-0.02150 
-0.07150 
-0.07150 
-0.12600 
-0.12600 
0.03500 
0.03500 
0.03700 
0.03700 
0.05650 
0.05650 
0.02350 
0.02350 
-0.07600 
-0.07600 
0.05450 
0.05450 
0.02650 
0.02650 
0.12100 
0.12100 
0.02350 
0.02350 
0.02700 
0.02700 
0.00350 
0.00350 
-0.00150 
-0.00150 
0.02350 
0.02350 
0.02050 
0.02050 
0.12000 
0.12000 
-0.01450 
-0.01450 
0.06650 
0.06650 
0.03400 
0.03400 
0.03150 
0.03150 
0.07650 
0.07650 
0.10800 
0.10800 
0.03350 
0.03350 
0.02050 
0.02050 
0.01400 
0.01400 
0.05400 
0.05400 
0.01850 
0.01850 
-0.03100 
-0.03100 
-0.05400 
-0.05400 
-0.03250 
-0.03250 
0.05400 
0.05400 
0.00100 
0.00100 
0.01700 
0.01700 
-0.05600 
-0.05600 
0.03650 
0.03650 
0.01650 
0.01650 
0.00400 
0.00400 
0.03300 
0.03300 
0.02000 
0.02000 
0.03150 
0.03150 
0.01250 
0.01250 
-0.03100 
-0.03100 
0.14000 
0.14000 
0.01750 
0.01750 
-0.01600 
-0.01600 
0.04450 
0.04450 
0.02050 
0.02050 
-0.01600 
-0.01600 
0.09400 
0.09400 
0.04900 
0.04900 
-0.04500 
-0.04500 
0.10100 
0.10100 
0.01200 
0.01200 
0.02350 
0.02350 
0.04450 
0.04450 
0.06550 
0.06550 
0.04300 
0.04300 
0.01300 
0.01300 
0.04200 
0.04200 
-0.00850 
-0.00850 
0.07000 
0.07000 
0.01200 
0.01200 
0.06150 
0.06150 
0.06600 
0.06600 
-0.09750 
-0.09750 
0.10600 
0.10600 
0.02650 
0.02650 
0.01250 
0.01250 
-0.02550 
-0.02550 
0.06750 
0.06750 
0.09100 
0.09100 
0.03350 
0.03350 
0.06700 
0.06700 
0.04750 
0.04750 
0.07850 
0.07850 
-0.04450 
-0.04450 
0.04700 
0.04700 
0.01200 
0.01200 
0.03800 
0.03800 
0.03150 
0.03150 
0.00250 
0.00250 
0.04550 
0.04550 
-0.06400 
-0.06400 
0.01150 
0.01150 
-0.05900 
-0.05900 
-0.08350 
-0.08350 
0.03850 
0.03850 
-0.07850 
-0.07850 
0.02350 
0.02350 
0.01700 
0.01700 
0.05100 
0.05100 
-0.02300 
-0.02300 
0.02800 
0.02800 
-0.00600 
-0.00600 
-0.06250 
-0.06250 
0.03850 
0.03850 
0.05200 
0.05200 
0.09800 
0.09800 
0.03450 
0.03450 
-0.04450 
-0.04450 
-0.05500 
-0.05500 
0.19300 
0.19300 
0.02050 
0.02050 
-0.06100 
-0.06100 
0.06150 
0.06150 
0.05350 
0.05350 
-0.04850 
-0.04850 
-0.04400 
-0.04400 
-0.04350 
-0.04350 
-0.06700 
-0.06700 
-0.01350 
-0.01350 
0.03100 
0.03100 
0.04050 
0.04050 
0.01300 
0.01300 
0.01750 
0.01750 
0.00350 
0.00350 
0.01500 
0.01500 
-0.05750 
-0.05750 
0.10100 
0.10100 
0.01000 
0.01000 
0.04100 
0.04100 
0.00100 
0.00100 
-0.03750 
-0.03750 
0.05000 
0.05000 
0.05750 
0.05750 
0.10650 
0.10650 
0.02700 
0.02700 
-0.05550 
-0.05550 
0.04850 
0.04850 
0.03450 
0.03450 
-0.01650 
-0.01650 
0.05800 
0.05800 
-0.04750 
-0.04750 
-0.05700 
-0.05700 
0.03300 
0.03300 
0.02950 
0.02950 
0.02900 
0.02900 
-0.03300 
-0.03300 
0.01100 
0.01100 
-0.04600 
-0.04600 
-0.03750 
-0.03750 
0.01700 
0.01700 
0.02850 
0.02850 
-0.00700 
-0.00700 
-0.01750 
-0.01750 
0.03750 
0.03750 
0.00350 
0.00350 
-0.02300 
-0.02300 
-0.01300 
-0.01300 
0.00350 
0.00350 
0.04950 
0.04950 
-0.06250 
-0.06250 
0.00300 
0.00300 
-0.08400 
-0.08400 
0.05850 
0.05850 
-0.00800 
-0.00800 
0.04200 
0.04200 
-0.03350 
-0.03350 
0.05600 
0.05600 
0.02600 
0.02600 
0.00250 
0.00250 
0.03300 
0.03300 
0.09850 
0.09850 
-0.00650 
-0.00650 
0.13500 
0.13500 
0.04700 
0.04700 
-0.10450 
-0.10450 
-0.01800 
-0.01800 
-0.01100 
-0.01100 
0.04750 
0.04750 
-0.01800 
-0.01800 
0.02350 
0.02350 
-0.03450 
-0.03450 
0.06250 
0.06250 
0.06450 
0.06450 
-0.00000 
-0.00000 
0.03200 
0.03200 
0.01900 
0.01900 
-0.06850 
-0.06850 
0.03500 
0.03500 
0.08600 
0.08600 
-0.04300 
-0.04300 
-0.07700 
-0.07700 
0.01800 
0.01800 
-0.01900 
-0.01900 
0.01850 
0.01850 
-0.00850 
-0.00850 
-0.07200 
-0.07200 
-0.01350 
-0.01350 
0.02950 
0.02950 
0.06100 
0.06100 
0.01000 
0.01000 
0.00800 
0.00800 
-0.03150 
-0.03150 
-0.01200 
-0.01200 
0.01300 
0.01300 
0.04650 
0.04650 
0.01250 
0.01250 
-0.06550 
-0.06550 
0.00600 
0.00600 
-0.01950 
-0.01950 
0.05250 
0.05250 
-0.01700 
-0.01700 
0.09300 
0.09300 
-0.01000 
-0.01000 
0.06650 
0.06650 
-0.06250 
-0.06250 
0.01850 
0.01850 
-0.09400 
-0.09400 
-0.01800 
-0.01800 
-0.05050 
-0.05050 
0.04300 
0.04300 
0.01100 
0.01100 
0.02300 
0.02300 
-0.00700 
-0.00700 
-0.01400 
-0.01400 
0.15050 
0.15050 
-0.01000 
-0.01000 
0.02450 
0.02450 
-0.05550 
-0.05550 
-0.06250 
-0.06250 
0.03750 
0.03750 
0.05100 
0.05100 
0.00100 
0.00100 
-0.02550 
-0.02550 
0.02550 
0.02550 
-0.08350 
-0.08350 
-0.04750 
-0.04750 
0.01250 
0.01250 
0.07250 
0.07250 
-0.00450 
-0.00450 
0.03900 
0.03900 
-0.04350 
-0.04350 
0.02000 
0.02000 
0.03650 
0.03650 
0.09950 
0.09950 
0.03900 
0.03900 
-0.11050 
-0.11050 
0.04950 
0.04950 
0.04600 
0.04600 
0.03750 
0.03750 
0.03450 
0.03450 
0.03600 
0.03600 
-0.00300 
-0.00300 
0.04900 
0.04900 
0.06350 
0.06350 
0.07700 
0.07700 
0.02800 
0.02800 
-0.01550 
-0.01550 
-0.01500 
-0.01500 
0.03250 
0.03250 
-0.07550 
-0.07550 
-0.01600 
-0.01600 
0.11100 
0.11100 
0.10150 
0.10150 
-0.03450 
-0.03450 
0.03000 
0.03000 
-0.01350 
-0.01350 
0.01150 
0.01150 
0.08550 
0.08550 
0.12700 
0.12700 
-0.03650 
-0.03650 
0.12100 
0.12100 
0.01650 
0.01650 
-0.03950 
-0.03950 
0.00900 
0.00900 
0.04300 
0.04300 
0.04050 
0.04050 
0.01550 
0.01550 
0.05450 
0.05450 
-0.05850 
-0.05850 
-0.00750 
-0.00750 
-0.07700 
-0.07700 
0.01350 
0.01350 
-0.01350 
-0.01350 
-0.00800 
-0.00800 
0.00400 
0.00400 
-0.01150 
-0.01150 
0.07250 
0.07250 
0.06250 
0.06250 
0.01350 
0.01350 
-0.00400 
-0.00400 
-0.07350 
-0.07350 
0.01700 
0.01700 
0.06050 
0.06050 
0.05300 
0.05300 
-0.02650 
-0.02650 
0.02450 
0.02450 
0.06750 
0.06750 
-0.10850 
-0.10850 
0.09900 
0.09900 
0.01700 
0.01700 
0.02200 
0.02200 
-0.04850 
-0.04850 
-0.01600 
-0.01600 
0.05050 
0.05050 
0.09050 
0.09050 
0.02600 
0.02600 
-0.01800 
-0.01800 
0.03300 
0.03300 
0.09350 
0.09350 
-0.01500 
-0.01500 
0.08600 
0.08600 
0.05000 
0.05000 
0.03850 
0.03850 
0.12900 
0.12900 
0.01800 
0.01800 
0.08450 
0.08450 
0.00750 
0.00750 
0.00650 
0.00650 
-0.04450 
-0.04450 
0.09550 
0.09550 
0.01250 
0.01250 
-0.02250 
-0.02250 
0.07000 
0.07000 
0.06350 
0.06350 
0.02200 
0.02200 
0.10850 
0.10850 
0.01600 
0.01600 
0.02300 
0.02300 
-0.02400 
-0.02400 
0.00600 
0.00600 
-0.01650 
-0.01650 
0.13250 
0.13250 
-0.07850 
-0.07850 
-0.05400 
-0.05400 
-0.06350 
-0.06350 
0.09600 
0.09600 
0.03600 
0.03600 
-0.03550 
-0.03550 
-0.02600 
-0.02600 
0.00100 
0.00100 
-0.05150 
-0.05150 
-0.05600 
-0.05600 
0.00150 
0.00150 
0.06400 
0.06400 
0.08050 
0.08050 
-0.02800 
-0.02800 
-0.05950 
-0.05950 
-0.06000 
-0.06000 
-0.03450 
-0.03450 
-0.02350 
-0.02350 
0.00400 
0.00400 
0.03350 
0.03350 
-0.06150 
-0.06150 
-0.04450 
-0.04450 
-0.07300 
-0.07300 
0.04250 
0.04250 
0.03200 
0.03200 
0.04750 
0.04750 
-0.07200 
-0.07200 
0.09050 
0.09050 
-0.07700 
-0.07700 
0.04300 
0.04300 
-0.06450 
-0.06450 
-0.10450 
-0.10450 
0.01600 
0.01600 
0.04350 
0.04350 
-0.07200 
-0.07200 
0.00550 
0.00550 
-0.09100 
-0.09100 
0.03300 
0.03300 
-0.03950 
-0.03950 
-0.00050 
-0.00050 
-0.05350 
-0.05350 
-0.02600 
-0.02600 
-0.01100 
-0.01100 
-0.00950 
-0.00950 
-0.10050 
-0.10050 
0.04650 
0.04650 
0.07300 
0.07300 
-0.00900 
-0.00900 
-0.08300 
-0.08300 
0.05550 
0.05550 
-0.01350 
-0.01350 
0.14350 
0.14350 
0.01700 
0.01700 
0.03900 
0.03900 
-0.02900 
-0.02900 
-0.07600 
-0.07600 
-0.08900 
-0.08900 
0.05000 
0.05000 
0.04350 
0.04350 
-0.03850 
-0.03850 
-0.07850 
-0.07850 
0.05900 
0.05900 
0.04800 
0.04800 
0.01800 
0.01800 
-0.01400 
-0.01400 
-0.03100 
-0.03100 
0.07950 
0.07950 
-0.04200 
-0.04200 
-0.00150 
-0.00150 
-0.00450 
-0.00450 
0.02950 
0.02950 
-0.03150 
-0.03150 
-0.03900 
-0.03900 
0.03600 
0.03600 
0.10200 
0.10200 
0.03300 
0.03300 
0.02350 
0.02350 
-0.03650 
-0.03650 
0.00400 
0.00400 
-0.04050 
-0.04050 
-0.05600 
-0.05600 
-0.00400 
-0.00400 
0.00850 
0.00850 
-0.02300 
-0.02300 
-0.05200 
-0.05200 
-0.00450 
-0.00450 
-0.02300 
-0.02300 
-0.00700 
-0.00700 
-0.03850 
-0.03850 
0.00850 
0.00850 
0.07700 
0.07700 
0.06850 
0.06850 
0.00900 
0.00900 
-0.00850 
-0.00850 
-0.00150 
-0.00150 
0.02550 
0.02550 
-0.05750 
-0.05750 
-0.04800 
-0.04800 
0.05000 
0.05000 
-0.04600 
-0.04600 
SCALARS Umean_Y double 1 
LOOKUP_TABLE default
0.08950 
0.08950 
0.06550 
0.06550 
0.08650 
0.08650 
0.04350 
0.04350 
0.06300 
0.06300 
0.09050 
0.09050 
0.04600 
0.04600 
0.06700 
0.06700 
0.05050 
0.05050 
0.05450 
0.05450 
0.13200 
0.13200 
0.03500 
0.03500 
0.04350 
0.04350 
0.06700 
0.06700 
0.07000 
0.07000 
0.04000 
0.04000 
0.04550 
0.04550 
0.07650 
0.07650 
0.06700 
0.06700 
-0.01250 
-0.01250 
0.01250 
0.01250 
0.16000 
0.16000 
0.02050 
0.02050 
0.02500 
0.02500 
0.07500 
0.07500 
-0.00850 
-0.00850 
0.06700 
0.06700 
0.08300 
0.08300 
0.18900 
0.18900 
0.15300 
0.15300 
0.11500 
0.11500 
0.11800 
0.11800 
0.00100 
0.00100 