# vtk DataFile Version 2.1 
Trajects from timestep 120 with color option 
ASCII 
 
DATASET POLYDATA POINTS 1026 float 
9.067 0.823 -69.030 
9.141 1.187 -69.158 
0.082 7.923 -68.207 
0.121 8.125 -68.183 
-0.848 6.024 -71.686 
-0.757 6.243 -71.657 
-3.505 -4.673 -73.281 
-3.506 -4.480 -73.336 
6.880 5.972 -72.547 
7.029 6.189 -72.712 
7.926 -1.220 -70.543 
7.993 -0.949 -70.972 
2.889 5.890 -69.517 
2.943 6.101 -69.532 
5.452 1.475 -72.164 
5.561 1.661 -72.376 
2.696 1.762 -69.214 
2.920 2.040 -69.351 
-9.218 3.586 -73.342 
-9.196 3.868 -73.398 
10.122 5.523 -72.574 
10.246 5.644 -72.779 
1.601 8.454 -71.876 
1.585 8.717 -71.826 
5.471 10.819 -73.237 
5.374 10.883 -73.403 
-8.509 9.025 -69.124 
-8.444 9.186 -68.908 
-1.101 4.743 -70.438 
-1.055 4.900 -70.506 
-1.175 10.805 -68.520 
-1.081 11.024 -68.508 
-6.329 4.479 -70.059 
-6.234 4.676 -70.279 
6.291 2.203 -72.405 
6.440 2.429 -72.625 
-1.067 4.256 -73.840 
-0.938 4.389 -73.871 
8.650 3.217 -66.910 
8.634 3.589 -66.887 
-0.421 7.293 -69.337 
-0.348 7.566 -69.348 
-2.856 7.790 -68.866 
-2.864 8.026 -68.886 
6.825 5.491 -67.745 
6.852 5.724 -67.924 
1.341 10.730 -69.512 
1.389 10.883 -69.463 
9.995 2.905 -71.896 
10.148 3.027 -72.183 
8.992 5.487 -69.241 
9.150 5.603 -69.371 
-14.952 -6.325 -71.457 
-14.800 -6.289 -71.673 
-1.439 12.355 -67.442 
-1.501 12.513 -67.372 
-1.348 -10.228 -70.345 
-1.186 -10.149 -70.518 
1.374 11.196 -67.212 
1.398 11.331 -67.111 
1.892 5.867 -70.101 
1.880 6.080 -70.018 
8.389 0.997 -73.703 
8.571 1.174 -73.878 
-10.730 6.417 -68.197 
-10.728 6.652 -68.143 
-0.180 9.680 -68.802 
-0.123 9.829 -68.794 
-2.705 -0.481 -67.916 
-2.556 -0.147 -68.084 
1.711 8.331 -67.672 
1.724 8.540 -67.666 
-7.248 2.076 -68.397 
-7.189 2.373 -68.591 
-3.882 8.142 -67.763 
-3.810 8.343 -67.644 
-4.273 -10.088 -71.997 
-4.017 -9.883 -72.162 
-0.549 12.664 -65.628 
-0.536 12.888 -65.529 
-9.787 -2.553 -73.122 
-9.734 -2.318 -73.301 
9.363 10.869 -71.440 
9.380 10.736 -71.734 
0.186 -10.574 -71.483 
0.389 -10.529 -71.626 
-13.004 -2.341 -71.836 
-12.983 -2.115 -71.938 
-5.310 0.191 -70.168 
-5.209 0.414 -70.203 
4.028 -6.373 -67.250 
4.301 -6.161 -67.331 
1.481 9.787 -66.218 
1.510 9.983 -66.115 
-14.003 -3.934 -70.617 
-13.662 -3.715 -70.579 
-2.824 -0.489 -64.585 
-2.726 -0.231 -64.873 
8.115 -8.214 -70.144 
8.133 -8.112 -70.430 
-15.929 -8.294 -74.270 
-15.939 -8.171 -74.321 
0.689 8.460 -68.205 
0.712 8.663 -68.152 
-6.120 7.808 -72.206 
-6.101 7.950 -72.192 
0.841 -9.371 -66.216 
1.105 -9.268 -66.311 
7.097 -0.477 -72.627 
7.210 -0.229 -72.953 
7.658 1.415 -68.249 
7.741 1.765 -68.553 
-13.454 10.358 -72.070 
-13.454 10.447 -72.011 
-3.845 10.192 -67.701 
-3.756 10.324 -67.592 
-7.000 7.246 -64.676 
-7.017 7.494 -64.643 
-11.835 6.509 -70.888 
-11.915 6.748 -70.906 
5.538 -3.079 -73.073 
5.686 -2.888 -73.230 
4.005 -9.242 -68.574 
4.227 -9.128 -68.695 
6.104 -8.165 -68.613 
6.254 -8.116 -69.020 
3.802 11.458 -68.927 
3.673 11.655 -68.850 
-5.982 -0.769 -67.282 
-5.808 -0.458 -67.601 
-9.169 -7.013 -69.889 
-9.147 -6.960 -69.959 
-3.804 1.496 -67.300 
-3.717 1.723 -67.349 
0.428 8.216 -74.468 
0.549 8.488 -74.507 
-10.788 8.856 -71.033 
-10.718 9.149 -70.980 
9.196 1.869 -71.528 
9.383 1.947 -71.647 
-7.430 1.940 -64.823 
-7.394 2.209 -64.955 
7.058 -3.235 -70.150 
7.231 -3.039 -70.390 
14.303 7.888 -74.398 
14.437 7.910 -74.686 
9.283 7.265 -68.757 
9.414 7.393 -68.831 
-4.756 4.243 -64.255 
-4.704 4.464 -64.228 
2.430 -5.222 -67.315 
2.584 -5.015 -67.494 
0.347 -2.237 -72.844 
0.447 -2.024 -72.862 
11.579 12.363 -67.541 
11.734 12.070 -67.506 
0.063 -3.106 -67.818 
0.164 -3.041 -67.998 
-7.879 10.353 -66.435 
-7.896 10.534 -66.470 
1.243 -0.192 -66.725 
1.415 0.128 -66.929 
9.855 -0.982 -67.541 
9.889 -0.775 -67.626 
6.347 6.130 -63.729 
6.354 6.308 -63.741 
11.300 -3.709 -64.592 
11.417 -3.499 -64.687 
-0.534 5.657 -66.558 
-0.558 5.807 -66.472 
0.226 1.439 -64.202 
0.309 1.530 -64.322 
-15.191 8.875 -70.161 
-15.244 9.189 -70.149 
5.940 -8.115 -70.342 
6.035 -7.945 -70.657 
4.164 1.428 -64.738 
4.261 1.486 -64.804 
4.497 -4.259 -63.094 
4.758 -4.206 -63.255 
15.857 5.542 -71.765 
15.991 5.635 -71.903 
3.736 5.643 -69.155 
3.812 5.915 -69.152 
0.180 -2.636 -67.919 
0.282 -2.550 -68.145 
9.715 -2.740 -69.574 
9.812 -2.624 -69.717 
-10.036 -5.300 -67.520 
-9.811 -5.138 -67.651 
-7.066 5.257 -70.268 
-6.930 5.468 -70.290 
8.791 -8.007 -68.408 
8.883 -7.892 -68.658 
0.721 6.667 -63.431 
0.720 6.822 -63.505 
-3.941 10.408 -61.457 
-3.957 10.555 -61.258 
-0.480 1.465 -77.016 
-0.481 1.625 -77.046 
-7.874 -10.664 -73.228 
-7.649 -10.521 -73.447 
-14.247 -8.003 -74.171 
-14.279 -7.870 -74.242 
-13.456 -1.722 -70.838 
-13.206 -1.494 -71.007 
-3.564 -7.256 -67.230 
-3.456 -7.366 -67.469 
16.482 0.359 -67.809 
16.442 0.445 -67.896 
-12.621 -7.516 -68.700 
-12.538 -7.462 -68.858 
15.591 3.336 -68.557 
15.700 3.425 -68.593 
-1.602 10.681 -65.879 
-1.593 10.931 -65.782 
4.656 8.739 -64.875 
4.760 8.908 -64.849 
1.612 12.044 -65.076 
1.636 12.179 -64.907 
2.446 0.793 -73.594 
2.584 1.003 -73.733 
5.252 9.443 -74.686 
5.159 9.596 -74.958 
-10.281 6.267 -62.555 
-10.393 6.545 -62.471 
-2.926 9.195 -63.059 
-2.879 9.390 -62.807 
12.421 -1.607 -68.353 
12.337 -1.478 -68.277 
-6.820 -8.762 -67.493 
-6.856 -8.641 -67.635 
-4.989 -1.689 -76.633 
-4.815 -1.531 -76.683 
-3.271 -12.268 -72.589 
-3.075 -12.177 -72.664 
-15.674 9.107 -73.210 
-15.679 9.023 -73.115 
5.150 -10.343 -66.336 
5.431 -10.262 -66.466 
-1.801 -3.993 -62.734 
-1.572 -3.805 -63.279 
12.252 -6.192 -65.943 
12.385 -6.010 -66.006 
-4.383 -3.831 -67.851 
-4.312 -3.812 -68.261 
-6.117 0.478 -64.495 
-6.203 0.739 -64.476 
-6.726 8.024 -75.499 
-6.723 8.176 -75.537 
-6.945 11.588 -68.706 
-6.809 11.673 -68.647 
-10.664 -2.960 -72.667 
-10.598 -2.622 -72.748 
-1.140 -4.106 -63.307 
-0.875 -3.974 -63.817 
-5.833 8.514 -62.926 
-5.812 8.831 -62.810 
5.257 -10.346 -70.353 
5.403 -10.292 -70.609 
-3.419 7.166 -61.896 
-3.472 7.368 -61.987 
9.574 12.258 -65.759 
9.568 12.276 -65.717 
-7.446 2.921 -61.821 
-7.467 3.112 -61.852 
8.078 -0.733 -72.687 
8.158 -0.448 -73.121 
3.251 0.786 -70.676 
3.399 1.104 -70.776 
-12.477 3.640 -70.500 
-12.455 3.902 -70.645 
-9.583 -9.573 -75.615 
-9.532 -9.478 -75.783 
-6.238 -8.219 -64.436 
-6.029 -8.091 -64.441 
-3.486 3.078 -69.515 
-3.369 3.329 -69.512 
0.155 12.623 -69.182 
0.040 12.818 -69.079 
-1.242 7.761 -64.573 
-1.295 7.956 -64.491 
-0.535 4.281 -61.451 
-0.396 4.516 -61.561 
-9.984 -8.534 -68.367 
-9.923 -8.448 -68.501 
-9.616 0.160 -67.163 
-9.423 0.551 -67.457 
-12.740 -1.607 -67.837 
-12.631 -1.242 -68.132 
-9.163 12.294 -70.842 
-9.084 12.419 -70.864 
10.824 6.629 -62.821 
10.900 6.834 -62.856 
-7.450 11.403 -63.797 
-7.408 11.779 -63.801 
-15.947 -9.583 -72.334 
-15.886 -9.354 -72.501 
-14.075 -9.865 -69.380 
-13.935 -9.860 -69.500 
10.421 -5.656 -65.310 
10.556 -5.434 -65.495 
11.451 -4.966 -70.315 
11.611 -4.943 -70.469 
11.637 7.117 -70.685 
11.621 6.968 -70.657 
7.203 -10.665 -68.667 
7.234 -10.554 -68.988 
-13.319 11.672 -72.872 
-13.289 11.811 -72.807 
9.617 -2.133 -71.528 
9.694 -1.964 -71.763 
2.601 4.098 -62.673 
2.685 4.337 -62.725 
-8.496 -7.783 -68.155 
-8.446 -7.653 -68.279 
5.273 -1.954 -75.111 
5.361 -1.675 -75.054 
9.688 -2.555 -63.453 
9.815 -2.359 -63.590 
16.496 8.359 -68.480 
16.703 8.542 -68.611 
-14.324 4.321 -69.243 
-14.348 4.558 -69.388 
-3.670 5.206 -62.163 
-3.702 5.463 -62.185 
-5.143 -1.158 -62.535 
-5.174 -1.139 -62.824 
-3.733 -7.827 -67.923 
-3.646 -7.828 -68.169 
-13.207 1.187 -66.774 
-13.218 1.604 -67.078 
15.166 7.022 -68.154 
15.381 7.154 -68.293 
5.337 -6.872 -71.911 
5.478 -6.682 -72.213 
7.497 5.816 -66.553 
7.524 6.088 -66.596 
4.875 -11.780 -68.433 
4.920 -11.768 -68.594 
1.855 -6.075 -70.932 
2.054 -5.805 -70.976 
5.348 2.359 -71.478 
5.480 2.566 -71.741 
9.961 -0.456 -68.258 
9.955 -0.269 -68.319 
6.039 -1.561 -74.769 
6.114 -1.390 -74.891 
3.982 2.330 -64.901 
4.072 2.451 -64.955 
9.701 -1.809 -64.952 
9.812 -1.574 -65.038 
-1.265 12.143 -62.178 
-1.314 12.438 -61.991 
8.273 5.484 -65.631 
8.353 5.770 -65.697 
5.711 -11.881 -68.376 
5.745 -11.878 -68.565 
12.908 7.127 -66.384 
13.063 7.204 -66.503 
16.535 -4.125 -70.175 
16.692 -4.040 -70.172 
-1.230 12.743 -64.791 
-1.216 12.950 -64.593 
5.343 11.446 -71.080 
5.240 11.452 -71.241 
-14.321 12.669 -68.988 
-14.476 12.868 -69.027 
5.315 -8.489 -67.293 
5.545 -8.358 -67.472 
-7.929 2.130 -63.749 
-7.975 2.244 -63.848 
-1.314 -2.662 -66.349 
-1.201 -2.329 -66.592 
-0.366 -11.780 -65.248 
-0.134 -11.784 -65.354 
-11.429 6.150 -72.603 
-11.364 6.358 -72.618 
0.224 -11.889 -67.907 
0.384 -11.724 -67.981 
12.733 1.009 -67.079 
12.836 1.215 -67.079 
5.012 2.168 -62.381 
5.189 2.304 -62.438 
4.293 -12.888 -66.637 
4.447 -12.855 -66.897 
-2.855 -11.434 -74.708 
-2.762 -11.344 -74.752 
-12.329 -5.992 -73.558 
-12.249 -5.856 -73.810 
-9.230 2.435 -67.254 
-9.020 2.889 -67.637 
-8.721 5.347 -64.717 
-8.728 5.594 -64.817 
-8.570 -6.519 -66.658 
-8.438 -6.352 -66.787 
9.092 3.229 -63.401 
9.219 3.526 -63.535 
-3.481 -10.628 -64.555 
-3.451 -10.568 -64.633 
-5.852 -0.721 -69.716 
-5.653 -0.597 -69.945 
0.699 2.759 -74.638 
0.777 2.978 -74.736 
-2.536 -12.611 -68.610 
-2.389 -12.487 -68.711 
-3.034 -5.407 -69.116 
-2.831 -5.159 -69.065 
8.209 -2.220 -69.275 
8.370 -1.989 -69.553 
9.871 4.405 -67.317 
9.949 4.601 -67.497 
-12.202 3.182 -69.977 
-12.162 3.396 -70.255 
11.303 1.962 -61.509 
11.376 2.210 -61.573 
3.321 5.574 -66.918 
3.347 5.649 -67.056 
10.314 4.784 -71.580 
10.469 4.923 -71.801 
14.324 3.341 -67.851 
14.461 3.469 -67.927 
6.876 9.963 -70.021 
6.794 10.006 -70.086 
0.361 -10.252 -65.551 
0.551 -10.235 -65.624 
-8.093 2.441 -74.727 
-8.068 2.623 -74.903 
11.771 -5.542 -73.927 
12.028 -5.376 -73.857 
-6.417 0.000 -75.832 
-6.323 0.200 -75.994 
-8.912 8.970 -75.231 
-8.894 9.144 -75.202 
2.773 0.183 -64.201 
2.867 0.135 -64.436 
4.449 8.145 -71.052 
4.519 8.360 -71.098 
-1.340 5.487 -64.435 
-1.410 5.559 -64.413 
0.633 -3.330 -63.867 
0.892 -3.239 -64.312 
-11.738 4.096 -62.427 
[...]
POINT_DATA 1026 
SCALARS Umean double 1 
LOOKUP_TABLE default
0.19644 
0.19644 
0.10356 
0.10356 
0.11946 
0.11946 
0.10034 
0.10034 
0.15533 
0.15533 
0.25592 
0.25592 
0.10916 
0.10916 
0.15118 
0.15118 
0.19120 
0.19120 
0.14417 
0.14417 
0.13420 
0.13420 
0.13409 
0.13409 
0.10132 
0.10132 
0.13857 
0.13857 
0.08858 
0.08858 
0.11931 
0.11931 
0.15511 
0.15511 
0.17441 
0.17441 
0.09393 
0.09393 
0.18653 
0.18653 
0.14140 
0.14140 
0.11849 
0.11849 
0.14753 
0.14753 
0.08384 
0.08384 
0.17368 
0.17368 
0.11760 
0.11760 
0.13328 
0.13328 
0.09180 
0.09180 
0.12491 
0.12491 
0.08515 
0.08515 
0.11446 
0.11446 
0.15417 
0.15417 
0.12057 
0.12057 
0.07987 
0.07987 
0.20123 
0.20123 
0.10474 
0.10474 
0.17981 
0.17981 
0.12221 
0.12221 
0.18357 
0.18357 
0.12262 
0.12262 
0.15006 
0.15006 
0.16157 
0.16157 
0.12618 
0.12618 
0.12442 
0.12442 
0.12365 
0.12365 
0.17751 
0.17751 
0.11165 
0.11165 
0.20352 
0.20352 
0.19944 
0.19944 
0.15209 
0.15209 
0.06676 
0.06676 
0.10553 
0.10553 
0.07197 
0.07197 
0.14944 
0.14944 
0.21246 
0.21246 
0.23548 
0.23548 
0.05339 
0.05339 
0.09647 
0.09647 
0.12538 
0.12538 
0.12634 
0.12634 
0.14408 
0.14408 
0.13867 
0.13867 
0.21826 
0.21826 
0.12387 
0.12387 
0.23914 
0.23914 
0.04526 
0.04526 
0.12399 
0.12399 
0.15012 
0.15012 
0.15294 
0.15294 
0.11749 
0.11749 
0.15090 
0.15090 
0.17744 
0.17744 
0.15920 
0.15920 
0.09877 
0.09877 
0.11432 
0.11432 
0.15701 
0.15701 
0.11800 
0.11800 
0.16666 
0.16666 
0.10820 
0.10820 
0.09257 
0.09257 
0.20833 
0.20833 
0.11317 
0.11317 
0.08927 
0.08927 
0.12924 
0.12924 
0.08728 
0.08728 
0.08598 
0.08598 
0.15933 
0.15933 
0.18517 
0.18517 
0.06544 
0.06544 
0.15560 
0.15560 
0.10683 
0.10683 
0.14122 
0.14122 
0.13122 
0.13122 
0.10406 
0.10406 
0.15332 
0.15332 
0.12600 
0.12600 
0.14508 
0.14508 
0.08588 
0.08588 
0.12396 
0.12396 
0.08140 
0.08140 
0.17251 
0.17251 
0.07706 
0.07706 
0.18911 
0.18911 
0.14220 
0.14220 
0.06435 
0.06435 
0.09323 
0.09323 
0.07263 
0.07263 
0.13415 
0.13415 
0.10007 
0.10007 
0.10881 
0.10881 
0.14358 
0.14358 
0.16282 
0.16282 
0.15563 
0.15563 
0.16104 
0.16104 
0.08584 
0.08584 
0.09500 
0.09500 
0.12015 
0.12015 
0.11437 
0.11437 
0.06345 
0.06345 
0.16002 
0.16002 
0.31017 
0.31017 
0.11703 
0.11703 
0.20827 
0.20827 
0.13773 
0.13773 
0.07835 
0.07835 
0.08544 
0.08544 
0.17689 
0.17689 
0.29485 
0.29485 
0.16910 
0.16910 
0.14981 
0.14981 
0.11390 
0.11390 
0.02304 
0.02304 
0.09732 
0.09732 
0.26267 
0.26267 
0.18237 
0.18237 
0.15013 
0.15013 
0.09981 
0.09981 
0.12257 
0.12257 
0.13847 
0.13847 
0.12436 
0.12436 
0.10904 
0.10904 
0.14718 
0.14718 
0.08525 
0.08525 
0.26295 
0.26295 
0.24090 
0.24090 
0.07475 
0.07475 
0.11071 
0.11071 
0.18918 
0.18918 
0.14496 
0.14496 
0.09223 
0.09223 
0.15948 
0.15948 
0.11163 
0.11163 
0.07622 
0.07622 
0.17053 
0.17053 
0.07818 
0.07818 
0.14976 
0.14976 
0.12931 
0.12931 
0.09324 
0.09324 
0.14903 
0.14903 
0.13538 
0.13538 
0.15289 
0.15289 
0.13944 
0.13944 
0.12996 
0.12996 
0.14564 
0.14564 
0.13047 
0.13047 
0.25808 
0.25808 
0.14402 
0.14402 
0.19182 
0.19182 
0.13835 
0.13835 
0.08380 
0.08380 
0.16914 
0.16914 
0.17989 
0.17989 
0.09839 
0.09839 
0.11152 
0.11152 
0.08009 
0.08009 
0.13688 
0.13688 
0.17635 
0.17635 
0.15211 
0.15211 
0.09603 
0.09603 
0.10502 
0.10502 
0.08928 
0.08928 
0.14340 
0.14340 
0.09561 
0.09561 
0.12762 
0.12762 
0.15977 
0.15977 
0.07892 
0.07892 
0.21372 
0.21372 
0.12755 
0.12755 
0.10922 
0.10922 
0.12073 
0.12073 
0.11516 
0.11516 
0.11519 
0.11519 
0.15199 
0.15199 
0.06835 
0.06835 
0.14866 
0.14866 
0.31500 
0.31500 
0.13328 
0.13328 
0.12445 
0.12445 
0.17485 
0.17485 
0.05144 
0.05144 
0.16387 
0.16387 
0.12614 
0.12614 
0.10861 
0.10861 
0.16226 
0.16226 
0.19784 
0.19784 
0.13865 
0.13865 
0.17655 
0.17655 
0.13316 
0.13316 
0.07960 
0.07960 
0.15181 
0.15181 
0.10115 
0.10115 
0.05656 
0.05656 
0.10212 
0.10212 
0.12721 
0.12721 
0.15693 
0.15693 
0.13700 
0.13700 
0.08866 
0.08866 
0.12881 
0.12881 
0.11537 
0.11537 
0.05140 
0.05140 
0.26143 
0.26143 
0.10299 
0.10299 
0.15245 
0.15245 
0.17547 
0.17547 
0.14083 
0.14083 
0.21819 
0.21819 
0.07075 
0.07075 
0.05643 
0.05643 
0.14940 
0.14940 
0.05503 
0.05503 
0.15731 
0.15731 
0.14526 
0.14526 
0.07111 
0.07111 
0.21278 
0.21278 
0.15572 
0.15572 
0.20529 
0.20529 
0.12229 
0.12229 
0.15011 
0.15011 
0.14553 
0.14553 
0.10749 
0.10749 
0.07103 
0.07103 
0.12994 
0.12994 
0.10633 
0.10633 
0.11886 
0.11886 
0.12301 
0.12301 
0.10477 
0.10477 
0.12952 
0.12952 
0.06196 
0.06196 
0.19679 
0.19679 
0.12366 
0.12366 
0.11431 
0.11431 
0.11754 
0.11754 
0.06894 
0.06894 
0.14006 
0.14006 
0.05148 
0.05148 
0.08834 
0.08834 
0.12725 
0.12725 
0.13418 
0.13418 
0.05537 
0.05537 
0.10440 
0.10440 
0.06369 
0.06369 
0.08976 
0.08976 
0.04933 
0.04933 
0.08172 
0.08172 
0.18261 
0.18261 
0.20757 
0.20757 
0.12519 
0.12519 
0.14854 
0.14854 
0.12255 
0.12255 
0.11773 
0.11773 
0.17671 
0.17671 
0.11115 
0.11115 
0.14454 
0.14454 
0.07645 
0.07645 
0.03380 
0.03380 
0.15888 
0.15888 
0.10165 
0.10165 
0.25258 
0.25258 
0.03258 
0.03258 
0.13219 
0.13219 
0.12785 
0.12785 
0.15989 
0.15989 
0.13328 
0.13328 
0.17366 
0.17366 
0.08706 
0.08706 
0.10725 
0.10725 
0.05636 
0.05636 
0.06669 
0.06669 
0.14993 
0.14993 
0.28780 
0.28780 
0.14104 
0.14104 
0.08383 
0.08383 
0.10524 
0.10524 
0.09730 
0.09730 
0.14986 
0.14986 
0.08245 
0.08245 
0.12340 
0.12340 
0.15293 
0.15293 
0.06659 
0.06659 
0.09970 
0.09970 
0.10792 
0.10792 
0.13020 
0.13020 
0.14562 
0.14562 
0.08941 
0.08941 
0.06477 
0.06477 
0.10676 
0.10676 
0.12789 
0.12789 
0.07477 
0.07477 
0.04585 
0.04585 
0.19713 
0.19713 
0.12295 
0.12295 
0.08686 
0.08686 
0.11309 
0.11309 
0.17805 
0.17805 
0.16889 
0.16889 
0.08055 
0.08055 
0.27877 
0.27877 
0.24084 
0.24084 
0.18832 
0.18832 
0.10241 
0.10241 
0.22508 
0.22508 
0.14178 
0.14178 
0.13191 
0.13191 
0.11498 
0.11498 
0.08860 
0.08860 
0.06774 
0.06774 
0.09707 
0.09707 
0.13016 
0.13016 
0.09925 
0.09925 
0.12311 
0.12311 
0.19951 
0.19951 
0.10106 
0.10106 
0.16103 
0.16103 
0.14757 
0.14757 
0.11857 
0.11857 
0.15885 
0.15885 
0.08338 
0.08338 
0.14563 
0.14563 
0.10420 
0.10420 
0.16645 
0.16645 
0.17830 
0.17830 
0.11290 
0.11290 
0.15645 
0.15645 
0.14590 
0.14590 
0.16856 
0.16856 
0.14217 
0.14217 
0.14012 
0.14012 
0.08352 
0.08352 
0.12544 
0.12544 
0.21427 
0.21427 
0.27722 
0.27722 
0.12436 
0.12436 
0.17828 
0.17828 
0.19501 
0.19501 
0.12768 
0.12768 
0.11715 
0.11715 
0.16023 
0.16023 
0.09169 
0.09169 
0.15452 
0.15452 
0.10697 
0.10697 
0.14149 
0.14149 
0.10995 
0.10995 
0.15135 
0.15135 
0.09649 
0.09649 
0.16600 
0.16600 
0.17129 
0.17129 
0.17967 
0.17967 
0.16631 
0.16631 
0.15938 
0.15938 
0.08958 
0.08958 
0.19932 
0.19932 
0.17617 
0.17617 
0.13880 
0.13880 
0.17376 
0.17376 
0.10254 
0.10254 
0.14082 
0.14082 
0.32607 
0.32607 
0.11718 
0.11718 
0.12207 
0.12207 
0.08334 
0.08334 
0.07361 
0.07361 
0.11131 
0.11131 
0.10026 
0.10026 
0.10134 
0.10134 
0.08120 
0.08120 
0.09331 
0.09331 
0.11046 
0.11046 
0.10836 
0.10836 
0.13303 
0.13303 
0.11948 
0.11948 
0.13492 
0.13492 
0.09085 
0.09085 
0.11773 
0.11773 
0.16645 
0.16645 
0.18671 
0.18671 
0.08842 
0.08842 
0.19265 
0.19265 
0.18319 
0.18319 
0.08663 
0.08663 
0.14904 
0.14904 
0.06890 
0.06890 
0.22667 
0.22667 
0.21983 
0.21983 
0.25033 
0.25033 
0.12064 
0.12064 
0.14062 
0.14062 
0.06569 
0.06569 
0.17218 
0.17218 
0.19571 
0.19571 
0.15357 
0.15357 
0.07920 
0.07920 
0.11576 
0.11576 
0.20765 
0.20765 
0.36219 
0.36219 
0.15246 
0.15246 
0.08178 
0.08178 
0.07281 
0.07281 
0.18840 
0.18840 
0.14280 
0.14280 
0.10475 
0.10475 
0.15822 
0.15822 
0.14913 
0.14913 
0.18179 
0.18179 
0.15757 
0.15757 
0.14258 
0.14258 
0.15807 
0.15807 
0.07164 
0.07164 
0.12049 
0.12049 
0.05914 
0.05914 
0.13525 
0.13525 
0.13992 
0.13992 
0.14230 
0.14230 
0.12034 
0.12034 
0.05522 
0.05522 
0.13458 
0.13458 
0.20096 
0.20096 
0.12868 
0.12868 
0.11655 
0.11655 
0.15914 
0.15914 
0.04150 
0.04150 
0.15553 
0.15553 
0.20376 
0.20376 
0.11964 
0.11964 
0.15846 
0.15846 
0.10899 
0.10899 
0.14774 
0.14774 
0.17497 
0.17497 
0.13586 
0.13586 
0.06756 
0.06756 
0.10568 
0.10568 
0.07916 
0.07916 
0.12183 
0.12183 
0.13462 
0.13462 
0.11578 
0.11578 
0.12228 
0.12228 
0.07928 
0.07928 
0.13434 
0.13434 
0.10911 
0.10911 
0.12723 
0.12723 
0.08122 
0.08122 
0.13421 
0.13421 
0.11687 
0.11687 
0.14901 
0.14901 
0.05489 
0.05489 
0.07726 
0.07726 
0.03743 
0.03743 
0.14112 
0.14112 
0.09746 
0.09746 
0.10952 
0.10952 
0.20187 
0.20187 
0.20879 
0.20879 
0.14265 
0.14265 
0.09202 
0.09202 
0.17990 
0.17990 
0.08931 
0.08931 
0.15083 
0.15083 
0.08987 
0.08987 
0.13246 
0.13246 
0.10806 
0.10806 
0.14611 
0.14611 
0.13500 
0.13500 
0.18667 
0.18667 
0.15007 
0.15007 
0.24806 
0.24806 
0.09228 
0.09228 
0.13089 
0.13089 
0.11660 
0.11660 
0.14791 
0.14791 
0.10622 
0.10622 
0.14208 
0.14208 
0.11337 
0.11337 
0.06057 
0.06057 
0.09516 
0.09516 
0.11348 
0.11348 
0.05995 
0.05995 
0.08534 
0.08534 
0.09001 
0.09001 
0.06623 
0.06623 
0.16917 
0.16917 
0.20216 
0.20216 
0.09223 
0.09223 
0.20753 
0.20753 
0.15883 
0.15883 
0.13006 
0.13006 
0.07182 
0.07182 
0.15326 
0.15326 
0.14860 
0.14860 
0.10691 
0.10691 
0.04946 
0.04946 
0.11596 
0.11596 
0.11505 
0.11505 
0.08409 
0.08409 
0.09457 
0.09457 
SCALARS Umean_X double 1 
LOOKUP_TABLE default
0.03700 
0.03700 
0.01950 
0.01950 
0.04550 
0.04550 
-0.00050 
-0.00050 
0.07450 
0.07450 
0.03350 
0.03350 
0.02700 
0.02700 
0.05450 
0.05450 
0.11200 
0.11200 
0.01100 
0.01100 
0.06200 
0.06200 
-0.00800 
-0.00800 
-0.04850 
-0.04850 
0.03250 
0.03250 
0.02300 
0.02300 
0.04700 
0.04700 
0.04750 
0.04750 
0.07450 
0.07450 
0.06450 
0.06450 
-0.00800 
-0.00800 
0.03650 
0.03650 
-0.00400 
-0.00400 
0.01350 
0.01350 
0.02400 
0.02400 
0.07650 
0.07650 
0.07900 
0.07900 
0.07600 
0.07600 
-0.03100 
-0.03100 
0.08100 
0.08100 
0.01200 
0.01200 
-0.00600 
-0.00600 
0.09100 
0.09100 
0.00100 
0.00100 
0.02850 
0.02850 
0.07450 
0.07450 
0.00650 
0.00650 
0.02950 
0.02950 
0.03600 
0.03600 
0.12800 
0.12800 
0.00650 
0.00650 
0.02650 
0.02650 
0.00850 
0.00850 
0.10150 
0.10150 
0.01050 
0.01050 
0.05050 
0.05050 
0.13650 
0.13650 
0.01450 
0.01450 
0.17050 
0.17050 
0.04900 
0.04900 
0.00900 
0.00900 
-0.00500 
-0.00500 
0.01150 
0.01150 
0.00950 
0.00950 
0.13200 
0.13200 
0.05650 
0.05650 
0.04150 
0.04150 
-0.00000 
-0.00000 
0.04450 
0.04450 
-0.00850 
-0.00850 
-0.04000 
-0.04000 
0.07400 
0.07400 
0.11100 
0.11100 
0.07500 
0.07500 
-0.06450 
-0.06450 
0.08700 
0.08700 
0.01100 
0.01100 
0.04350 
0.04350 
0.06050 
0.06050 
0.03500 
0.03500 
0.09350 
0.09350 
0.01800 
0.01800 
0.08650 
0.08650 
0.06700 
0.06700 
0.06550 
0.06550 
0.02600 
0.02600 
0.07700 
0.07700 
0.05000 
0.05000 
0.07750 
0.07750 
0.05050 
0.05050 
-0.00850 
-0.00850 
0.08600 
0.08600 
0.01700 
0.01700 
0.00350 
0.00350 
0.05850 
0.05850 
-0.01200 
-0.01200 
0.04150 
0.04150 
-0.02650 
-0.02650 
0.04750 
0.04750 
0.04850 
0.04850 
0.13050 
0.13050 
0.06700 
0.06700 
0.03800 
0.03800 
0.05100 
0.05100 
0.04850 
0.04850 
0.11250 
0.11250 
0.06800 
0.06800 
0.04600 
0.04600 
-0.00050 
-0.00050 
-0.00800 
-0.00800 
-0.00050 
-0.00050 
0.11250 
0.11250 
-0.01600 
-0.01600 
0.12500 
0.12500 
0.05400 
0.05400 
-0.02000 
-0.02000 
0.04150 
0.04150 
0.05450 
0.05450 
0.00450 
0.00450 
0.05200 
0.05200 
0.01200 
0.01200 
0.06900 
0.06900 
-0.04650 
-0.04650 
-0.05600 
-0.05600 
0.02350 
0.02350 
-0.04200 
-0.04200 
-0.01800 
-0.01800 
0.08700 
0.08700 
0.09800 
0.09800 
-0.00250 
-0.00250 
0.14050 
0.14050 
0.11450 
0.11450 
0.06650 
0.06650 
0.03550 
0.03550 
-0.04300 
-0.04300 
0.00150 
0.00150 
0.06800 
0.06800 
0.03300 
0.03300 
0.13250 
0.13250 
0.01050 
0.01050 
0.07300 
0.07300 
-0.02650 
-0.02650 
-0.00300 
-0.00300 
-0.01050 
-0.01050 
0.04000 
0.04000 
0.07400 
0.07400 
0.01100 
0.01100 
0.02550 
0.02550 
0.10450 
0.10450 
0.05850 
0.05850 
-0.05750 
-0.05750 
-0.02650 
-0.02650 
0.06950 
0.06950 
0.03050 
0.03050 
0.09650 
0.09650 
0.05450 
0.05450 
0.03950 
0.03950 
0.03800 
0.03800 
0.02100 
0.02100 
0.03050 
0.03050 
0.07000 
0.07000 
0.06750 
0.06750 
0.08000 
0.08000 
-0.00800 
-0.00800 
0.01550 
0.01550 
0.01500 
0.01500 
0.03850 
0.03850 
0.04200 
0.04200 
0.02500 
0.02500 
0.04400 
0.04400 
0.06350 
0.06350 
0.10350 
0.10350 
-0.01200 
-0.01200 
-0.01600 
-0.01600 
-0.01550 
-0.01550 
0.04350 
0.04350 
-0.00550 
-0.00550 
0.10750 
0.10750 
0.07050 
0.07050 
0.01350 
0.01350 
0.02250 
0.02250 
0.09950 
0.09950 
0.06600 
0.06600 
-0.00300 
-0.00300 
0.03750 
0.03750 
0.04500 
0.04500 
0.05550 
0.05550 
-0.02450 
-0.02450 
0.04000 
0.04000 
0.01700 
0.01700 
0.07750 
0.07750 
0.07850 
0.07850 
0.00700 
0.00700 
-0.05150 
-0.05150 
-0.07750 
-0.07750 
0.11500 
0.11500 
-0.02300 
-0.02300 
0.05650 
0.05650 
0.11600 
0.11600 
0.03250 
0.03250 
0.08000 
0.08000 
0.05150 
0.05150 
0.08850 
0.08850 
0.07700 
0.07700 
0.04650 
0.04650 
0.04000 
0.04000 
0.10500 
0.10500 
-0.00350 
-0.00350 
0.06600 
0.06600 
0.06350 
0.06350 
0.01500 
0.01500 
0.09950 
0.09950 
0.03900 
0.03900 
0.07350 
0.07350 
0.10150 
0.10150 
0.08050 
0.08050 
0.03900 
0.03900 
0.02000 
0.02000 
0.03650 
0.03650 
0.01300 
0.01300 
0.07750 
0.07750 
0.06850 
0.06850 
-0.04100 
-0.04100 
0.09500 
0.09500 
0.01250 
0.01250 
0.12850 
0.12850 
0.04700 
0.04700 
0.00900 
0.00900 
0.04700 
0.04700 
0.03500 
0.03500 
-0.03500 
-0.03500 
0.12950 
0.12950 
-0.00000 
-0.00000 
0.04550 
0.04550 
0.04200 
0.04200 
0.07600 
0.07600 
-0.05700 
-0.05700 
0.01650 
0.01650 
0.02150 
0.02150 
0.06800 
0.06800 
-0.02250 
-0.02250 
0.08050 
0.08050 
0.04850 
0.04850 
-0.03500 
-0.03500 
0.01250 
0.01250 
0.07250 
0.07250 
0.10900 
0.10900 
0.01350 
0.01350 
-0.05000 
-0.05000 
0.05300 
0.05300 
0.03300 
0.03300 
0.06500 
0.06500 
0.12600 
0.12600 
0.02400 
0.02400 
-0.03850 
-0.03850 
0.08900 
0.08900 
0.03700 
0.03700 
0.01450 
0.01450 
0.05700 
0.05700 
0.09600 
0.09600 
0.01700 
0.01700 
0.02500 
0.02500 
0.03300 
0.03300 
0.04650 
0.04650 
-0.02650 
-0.02650 
-0.00000 
-0.00000 
0.03350 
0.03350 
-0.03650 
-0.03650 
0.01200 
0.01200 
-0.02350 
-0.02350 
0.10000 
0.10000 
0.06000 
0.06000 
0.04200 
0.04200 
-0.03700 
-0.03700 
0.06250 
0.06250 
0.11250 
0.11250 
0.14350 
0.14350 
0.04800 
0.04800 
0.04400 
0.04400 
-0.01600 
-0.01600 
0.04900 
0.04900 
0.07750 
0.07750 
0.05200 
0.05200 
0.03300 
0.03300 
0.00350 
0.00350 
0.02650 
0.02650 
0.08650 
0.08650 
-0.04050 
-0.04050 
0.14850 
0.14850 
0.01000 
0.01000 
0.09700 
0.09700 
0.10200 
0.10200 
0.07050 
0.07050 
0.11850 
0.11850 
0.03300 
0.03300 
-0.04450 
-0.04450 
0.01750 
0.01750 
0.04200 
0.04200 
0.01150 
0.01150 
0.08250 
0.08250 
0.13850 
0.13850 
0.04600 
0.04600 
-0.03300 
-0.03300 
0.02600 
0.02600 
-0.00900 
-0.00900 
0.10500 
0.10500 
0.00550 
0.00550 
0.07150 
0.07150 
0.04650 
0.04650 
0.03600 
0.03600 
0.08000 
0.08000 
0.09900 
0.09900 
0.11450 
0.11450 
-0.01800 
-0.01800 
-0.04100 
-0.04100 
0.00800 
0.00800 
-0.00250 
-0.00250 
0.10700 
0.10700 
0.02800 
0.02800 
-0.00350 
-0.00350 
0.07300 
0.07300 
0.02450 
0.02450 
0.04050 
0.04050 
0.04200 
0.04200 
0.03450 
0.03450 
0.09800 
0.09800 
0.07800 
0.07800 
-0.00150 
-0.00150 
0.08600 
0.08600 
0.12000 
0.12000 
-0.00950 
-0.00950 
0.11900 
0.11900 
0.00450 
0.00450 
0.06900 
0.06900 
0.03350 
0.03350 
0.00350 
0.00350 
0.03650 
0.03650 
-0.03100 
-0.03100 
0.09850 
0.09850 
0.00850 
0.00850 
0.02900 
0.02900 
0.06000 
0.06000 
0.06200 
0.06200 
0.06200 
0.06200 
0.08300 
0.08300 
0.06700 
0.06700 
-0.06250 
-0.06250 
0.05950 
0.05950 
0.09250 
0.09250 
0.06400 
0.06400 
0.05600 
0.05600 
0.05200 
0.05200 
0.04450 
0.04450 
0.10950 
0.10950 
0.05600 
0.05600 
0.09550 
0.09550 
0.09750 
0.09750 
0.09900 
0.09900 
0.02300 
0.02300 
-0.00350 
-0.00350 
0.10900 
0.10900 
0.20150 
0.20150 
-0.00500 
-0.00500 
0.12050 
0.12050 
0.14700 
0.14700 
0.01900 
0.01900 
0.10100 
0.10100 
-0.08950 
-0.08950 
-0.00050 
-0.00050 
0.02950 
0.02950 
0.03600 
0.03600 
-0.00050 
-0.00050 
0.09400 
0.09400 
0.05450 
0.05450 
0.01350 
0.01350 
0.08200 
0.08200 
0.09100 
0.09100 
0.10500 
0.10500 
0.01850 
0.01850 
0.12850 
0.12850 
0.08350 
0.08350 
0.17000 
0.17000 
0.05100 
0.05100 
0.02750 
0.02750 
0.01800 
0.01800 
0.08900 
0.08900 
0.09150 
0.09150 
0.11500 
0.11500 
0.09000 
0.09000 
0.04350 
0.04350 
0.07750 
0.07750 
0.03250 
0.03250 
0.09300 
0.09300 
0.02950 
0.02950 
0.00450 
0.00450 
0.01650 
0.01650 
0.02500 
0.02500 
0.08300 
0.08300 
0.08200 
0.08200 
-0.11650 
-0.11650 
-0.00850 
-0.00850 
0.02100 
0.02100 
0.08100 
0.08100 
0.00200 
0.00200 
0.10050 
0.10050 
0.10750 
0.10750 
-0.02350 
-0.02350 
0.00400 
0.00400 
-0.06700 
-0.06700 
0.00400 
0.00400 
0.05700 
0.05700 
0.03350 
0.03350 
0.11550 
0.11550 
0.07750 
0.07750 
0.08150 
0.08150 
0.01200 
0.01200 
0.10200 
0.10200 
0.01350 
0.01350 
0.06200 
0.06200 
0.02000 
0.02000 
0.02900 
0.02900 
0.06300 
0.06300 
0.05250 
0.05250 
0.03150 
0.03150 
0.19600 
0.19600 
0.04600 
0.04600 
0.07750 
0.07750 
-0.03600 
-0.03600 
0.07050 
0.07050 
0.07800 
0.07800 
0.09700 
0.09700 
0.00950 
0.00950 
0.09950 
0.09950 
0.04600 
0.04600 
0.01750 
0.01750 
0.10400 
0.10400 
0.00450 
0.00450 
0.05600 
0.05600 
0.04150 
0.04150 
0.00800 
0.00800 
0.09400 
0.09400 
0.02100 
0.02100 
0.10250 
0.10250 
-0.00450 
-0.00450 
0.00300 
0.00300 
0.04850 
0.04850 
0.16350 
0.16350 
0.10500 
0.10500 
0.08650 
0.08650 
0.07800 
0.07800 
0.02100 
0.02100 
-0.02800 
-0.02800 
0.05850 
0.05850 
0.09150 
0.09150 
0.11150 
0.11150 
0.08950 
0.08950 
-0.02100 
-0.02100 
0.09050 
0.09050 
0.02050 
0.02050 
-0.02000 
-0.02000 
0.04900 
0.04900 
0.04950 
0.04950 
0.03400 
0.03400 
0.05550 
0.05550 
0.05550 
0.05550 
0.05250 
0.05250 
0.05900 
0.05900 
-0.00950 
-0.00950 
0.04450 
0.04450 
0.02250 
0.02250 
-0.01750 
-0.01750 
0.02400 
0.02400 
0.09350 
0.09350 
-0.02350 
-0.02350 
0.02350 
0.02350 
0.06800 
0.06800 
-0.01500 
-0.01500 
-0.00800 
-0.00800 
0.04700 
0.04700 
0.09600 
0.09600 
0.08000 
0.08000 
0.07300 
0.07300 
0.05250 
0.05250 
0.00150 
0.00150 
0.10900 
0.10900 
0.03400 
0.03400 
0.03400 
0.03400 
-0.06650 
-0.06650 
0.09200 
0.09200 
0.04100 
0.04100 
0.12000 
0.12000 
0.06850 
0.06850 
0.02500 
0.02500 
0.05200 
0.05200 
0.14300 
0.14300 
0.06550 
0.06550 
0.06100 
0.06100 
0.03750 
0.03750 
0.07400 
0.07400 
0.06400 
0.06400 
0.03250 
0.03250 
0.00100 
0.00100 
0.03800 
0.03800 
0.03850 
0.03850 
0.02300 
0.02300 
-0.01000 
-0.01000 
0.03350 
0.03350 
-0.06100 
-0.06100 
0.03700 
0.03700 
0.11750 
0.11750 
0.12850 
0.12850 
0.08000 
0.08000 
0.07550 
0.07550 
0.04500 
0.04500 
0.09850 
0.09850 
0.03850 
0.03850 
0.09300 
0.09300 
-0.01400 
-0.01400 
0.00400 
0.00400 
0.01950 
0.01950 
0.10250 
0.10250 
0.04350 
0.04350 
-0.05050 
-0.05050 
0.04550 
0.04550 
SCALARS Umean_Y double 1 
LOOKUP_TABLE default
0.18200 
0.18200 
0.10100 
0.10100 
0.10950 
0.10950 
0.09650 
0.09650 
0.10850 
0.10850 
0.13550 
0.13550 
0.10550 
0.10550 
0.09300 
0.09300 
0.13900 
0.13900 
0.14100 
0.14100 
0.06050 
0.06050 
0.13150 
0.13150 
0.03200 
0.03200 
0.08050 
0.08050 
0.07850 
0.07850 
0.10950 
0.10950 
0.09850 
0.09850 
0.11300 
0.11300 
0.06650 
0.06650 
0.18600 
0.18600 
0.13650 
0.13650 
0.11800 
0.11800 
0.11650 
0.11650 
0.07650 
0.07650 
0.06100 
0.06100 
0.05800 
0.05800 
0.01800 
0.01800 
0.07900 
0.07900 
0.03950 
0.03950 
0.06750 
0.06750 
0.10650 
0.10650 
0.08850 
0.08850 
0.11750 
0.11750 
0.07450 
0.07450 
0.16700 
0.16700 
0.10450 
0.10450 
0.14850 
0.14850 
0.10050 
0.10050 
0.10250 
0.10250 
0.11200 
0.11200 
0.11750 
0.11750 
-0.06650 
-0.06650 
0.02250 
0.02250 
0.11300 
0.11300 
0.11150 
0.11150 
0.10600 
0.10600 
0.09800 
0.09800 
0.10950 
0.10950 
0.12900 
0.12900 
0.05100 
0.05100 
0.06150 
0.06150 
0.10150 
0.10150 
0.07100 
0.07100 
0.05150 
0.05150 
0.12400 
0.12400 
0.17500 
0.17500 
0.04450 
0.04450 
0.06600 
0.06600 
0.12400 
0.12400 
0.11950 
0.11950 
0.09550 
0.09550 
0.05700 
0.05700 
0.02450 
0.02450 
0.09850 
0.09850 
0.15550 
0.15550 
0.02650 
0.02650 