# vtk DataFile Version 2.1 
Trajects from timestep 128 with color option 
ASCII 
 
DATASET POLYDATA POINTS 1052 float 
1.948 8.594 -72.499 
1.884 8.787 -72.508 
0.344 9.519 -67.990 
0.363 9.712 -67.953 
7.091 7.277 -69.088 
7.141 7.459 -69.273 
-0.838 6.046 -70.858 
-0.811 6.218 -70.912 
8.149 5.707 -67.092 
8.045 5.940 -67.144 
9.747 3.625 -70.114 
9.891 3.978 -70.337 
-1.052 -0.667 -73.203 
-0.877 -0.416 -73.481 
-4.326 -3.609 -70.875 
-4.307 -3.588 -71.221 
0.072 -2.309 -66.911 
0.274 -2.049 -67.301 
8.431 4.210 -70.631 
8.506 4.471 -70.899 
-6.341 -0.482 -73.467 
-6.370 -0.216 -73.498 
-4.368 -7.734 -76.435 
-4.253 -7.494 -76.541 
-12.128 5.750 -71.518 
-12.052 6.033 -71.606 
-0.213 4.875 -67.045 
-0.221 5.025 -67.035 
-10.215 -2.519 -76.704 
-10.293 -2.159 -76.798 
1.655 11.845 -69.016 
1.678 11.964 -68.937 
6.552 12.408 -69.112 
6.454 12.350 -69.180 
3.128 3.435 -69.791 
3.312 3.681 -69.913 
10.436 -1.819 -70.835 
10.509 -1.727 -71.013 
-13.014 -0.582 -72.889 
-13.019 -0.361 -73.008 
-2.471 5.117 -69.672 
-2.365 5.350 -69.736 
1.686 9.826 -67.391 
1.661 10.015 -67.327 
-6.179 2.227 -76.040 
-6.059 2.337 -76.172 
-6.838 4.842 -69.857 
-6.834 5.188 -70.011 
7.527 4.061 -74.225 
7.681 4.306 -74.459 
4.350 11.631 -72.127 
4.194 11.675 -72.255 
-1.645 12.559 -64.938 
-1.667 12.781 -64.791 
2.638 2.426 -67.668 
2.816 2.666 -67.681 
-5.060 8.465 -72.410 
-4.998 8.643 -72.422 
-4.212 -5.329 -70.797 
-4.104 -5.365 -71.053 
1.041 -2.819 -67.079 
1.347 -2.634 -67.477 
-4.539 6.073 -63.857 
-4.553 6.289 -63.803 
-11.776 1.470 -69.790 
-11.646 1.831 -70.002 
6.205 2.812 -73.669 
6.244 2.940 -73.915 
-12.331 0.534 -72.489 
-12.260 0.837 -72.595 
-3.104 9.604 -68.744 
-3.142 9.811 -68.737 
-0.118 5.791 -69.615 
0.001 6.019 -69.686 
1.582 11.271 -65.277 
1.581 11.452 -65.139 
6.405 -5.351 -74.379 
6.505 -5.171 -74.672 
-0.542 12.496 -68.146 
-0.533 12.708 -68.048 
-11.827 -2.533 -70.619 
-11.610 -2.420 -70.540 
-2.282 2.441 -66.445 
-2.211 2.762 -66.528 
-3.086 -3.645 -64.530 
-2.970 -3.488 -64.896 
-1.966 -11.435 -72.719 
-1.854 -11.351 -72.753 
-13.456 11.202 -71.744 
-13.465 11.342 -71.706 
-0.052 -9.651 -71.601 
0.092 -9.595 -71.774 
-11.412 8.106 -71.024 
-11.496 8.363 -70.891 
-5.045 6.299 -70.612 
-4.909 6.511 -70.607 
1.332 5.290 -73.394 
1.443 5.503 -73.554 
-0.789 7.423 -66.135 
-0.818 7.690 -66.096 
-3.311 11.239 -66.831 
-3.261 11.357 -66.710 
-5.736 6.808 -65.738 
-5.661 7.088 -65.713 
-0.635 -5.592 -68.703 
-0.483 -5.508 -68.852 
-3.359 -3.156 -73.794 
-3.310 -2.949 -73.876 
-8.548 10.558 -67.584 
-8.610 10.813 -67.417 
-8.097 -5.059 -71.195 
-8.124 -4.978 -71.321 
0.414 -4.270 -69.850 
0.633 -4.091 -70.062 
-3.151 -8.031 -69.059 
-3.141 -8.097 -69.238 
-3.258 3.236 -67.660 
-3.241 3.452 -67.571 
-1.104 -3.512 -65.639 
-0.920 -3.336 -66.131 
5.359 10.082 -64.748 
5.429 10.250 -64.723 
-7.128 3.718 -65.455 
-7.083 3.878 -65.590 
-14.481 -1.371 -68.034 
-14.415 -1.207 -68.331 
-3.330 8.054 -68.028 
-3.326 8.230 -67.947 
-10.395 8.444 -67.543 
-10.353 8.720 -67.463 
-7.850 -6.565 -69.074 
-7.719 -6.397 -69.166 
10.335 5.842 -68.319 
10.413 6.003 -68.474 
-8.968 -6.557 -70.751 
-8.922 -6.484 -70.836 
-1.893 1.053 -65.333 
-1.867 1.123 -65.420 
8.308 -1.596 -72.434 
8.446 -1.391 -72.719 
-9.162 -6.486 -67.236 
-9.091 -6.329 -67.403 
2.073 -10.173 -66.282 
2.306 -10.151 -66.369 
1.016 10.878 -69.298 
1.022 11.088 -69.274 
1.542 12.219 -66.236 
1.571 12.357 -65.991 
-12.647 8.841 -70.467 
-12.774 9.242 -70.508 
0.599 7.830 -63.790 
0.567 7.977 -63.808 
-4.516 -10.461 -71.317 
-4.462 -10.294 -71.505 
3.505 6.393 -68.004 
3.514 6.508 -68.109 
-1.584 -3.845 -64.559 
-1.424 -3.634 -65.000 
-0.307 -9.322 -64.448 
-0.075 -9.297 -64.638 
-6.104 12.203 -68.119 
-6.032 12.286 -68.026 
10.078 1.593 -68.611 
10.113 1.917 -68.740 
-8.474 2.798 -66.468 
-8.519 2.971 -66.621 
8.319 -2.644 -70.224 
8.588 -2.535 -70.532 
-8.125 12.205 -65.887 
-8.160 12.482 -65.815 
-15.502 -7.871 -73.241 
-15.439 -7.660 -73.339 
-7.197 0.609 -63.436 
-7.203 0.699 -63.689 
4.861 -2.567 -68.352 
5.142 -2.213 -68.631 
6.007 -0.165 -76.033 
6.084 0.081 -76.133 
6.494 -4.687 -68.276 
6.760 -4.542 -68.431 
2.458 12.725 -68.311 
2.248 12.849 -68.206 
-13.885 -5.934 -72.865 
-13.736 -5.882 -73.012 
4.685 3.160 -65.488 
4.775 3.245 -65.604 
-8.926 -5.545 -68.106 
-8.683 -5.314 -68.047 
-1.384 2.031 -69.623 
-1.180 2.356 -69.961 
-6.895 -6.234 -67.049 
-6.628 -6.073 -67.225 
-12.425 -4.240 -74.687 
-12.340 -4.035 -74.873 
-9.401 -7.656 -69.586 
-9.319 -7.533 -69.780 
-9.754 3.112 -74.258 
-9.721 3.306 -74.453 
-3.100 10.387 -61.370 
-3.209 10.509 -61.170 
-5.599 -12.101 -67.768 
-5.427 -11.953 -67.856 
2.309 -2.695 -66.654 
2.472 -2.630 -66.955 
-7.444 6.376 -63.891 
-7.481 6.526 -63.940 
1.173 10.224 -74.650 
1.215 10.426 -74.651 
2.301 -5.051 -66.276 
2.572 -4.945 -66.770 
-0.604 -0.231 -68.769 
-0.535 0.068 -69.139 
4.525 3.124 -71.936 
4.671 3.384 -72.083 
0.771 9.986 -67.822 
0.765 10.176 -67.753 
14.847 3.044 -72.882 
14.710 2.978 -72.852 
12.099 -2.074 -65.301 
12.172 -1.879 -65.378 
7.562 9.512 -65.134 
7.599 9.619 -65.079 
-4.676 -7.515 -65.643 
-4.481 -7.451 -65.922 
9.022 -0.755 -72.596 
9.109 -0.590 -73.068 
10.024 5.520 -63.984 
10.130 5.782 -64.050 
8.993 7.462 -66.127 
9.094 7.652 -66.194 
6.108 -11.650 -69.820 
6.158 -11.587 -70.173 
-4.098 7.322 -62.207 
-4.158 7.579 -62.153 
-12.589 5.125 -64.303 
-12.520 5.162 -64.338 
-7.233 9.264 -64.392 
-7.278 9.563 -64.319 
3.811 -3.700 -68.722 
4.001 -3.543 -68.859 
4.365 7.669 -69.352 
4.443 7.959 -69.264 
3.167 5.998 -62.739 
3.225 6.178 -62.696 
-4.312 -6.673 -69.004 
-4.060 -6.650 -69.247 
-0.479 -3.413 -69.875 
-0.157 -3.184 -70.014 
-12.865 2.265 -69.517 
-12.835 2.701 -69.782 
12.812 7.609 -70.609 
12.904 7.423 -70.820 
-11.566 5.004 -63.524 
-11.510 5.079 -63.669 
-3.689 9.290 -61.406 
-3.775 9.575 -61.288 
14.452 0.972 -69.048 
14.474 0.996 -69.111 
6.390 -7.211 -69.006 
6.715 -7.113 -69.239 
-9.454 -3.101 -67.750 
-9.267 -2.860 -68.013 
4.717 9.288 -73.111 
4.652 9.391 -73.300 
-0.828 -11.281 -68.235 
-0.626 -11.160 -68.333 
16.023 0.982 -68.372 
16.001 1.043 -68.419 
-10.681 -1.512 -62.322 
-10.572 -1.267 -62.624 
-10.676 7.192 -68.721 
-10.527 7.528 -68.748 
-8.129 -4.065 -68.703 
-7.862 -3.903 -68.870 
16.874 6.393 -72.594 
17.003 6.463 -72.690 
4.410 4.997 -66.652 
4.470 5.198 -66.656 
-4.727 -11.072 -67.283 
-4.568 -10.971 -67.362 
4.404 3.920 -70.243 
4.627 4.212 -70.357 
10.276 1.066 -67.982 
10.339 1.373 -67.956 
-2.019 11.193 -78.045 
-2.039 11.381 -78.182 
-2.698 5.063 -63.634 
-2.724 5.203 -63.716 
-10.207 -5.331 -67.171 
-10.074 -5.256 -67.285 
-10.724 1.817 -64.010 
-10.738 1.957 -64.383 
-2.512 6.924 -64.238 
-2.593 7.087 -64.304 
-10.770 -9.286 -69.168 
-10.720 -9.269 -69.427 
-3.849 -3.883 -65.688 
-3.591 -3.864 -66.098 
7.932 11.796 -69.889 
7.848 11.566 -70.002 
-9.595 -3.912 -67.168 
-9.417 -3.569 -67.295 
-6.838 1.651 -64.810 
-6.916 1.722 -64.975 
3.839 8.764 -64.764 
3.797 8.946 -64.795 
8.902 -2.763 -69.214 
9.142 -2.654 -69.495 
5.292 -11.417 -69.595 
5.371 -11.337 -69.716 
0.965 2.051 -65.584 
1.036 2.115 -65.775 
-8.772 6.838 -64.877 
-8.786 7.001 -64.882 
10.836 -0.906 -64.477 
10.983 -0.687 -64.542 
2.050 0.467 -68.910 
2.198 0.514 -69.150 
-2.203 -5.409 -72.641 
-2.072 -5.174 -72.697 
-6.890 -6.269 -68.774 
-6.743 -6.109 -68.918 
4.634 -8.799 -65.649 
4.777 -8.730 -65.775 
7.891 7.752 -67.101 
7.952 7.971 -67.233 
-6.277 5.179 -60.857 
-6.295 5.354 -60.998 
-7.373 -7.318 -69.180 
-7.384 -7.186 -69.279 
-10.295 -0.539 -73.769 
-10.253 -0.288 -73.922 
-11.410 4.523 -71.655 
-11.251 4.686 -71.834 
14.331 8.787 -74.008 
14.535 8.777 -74.440 
14.553 -12.257 -69.936 
14.656 -12.120 -69.970 
-5.714 7.271 -70.445 
-5.540 7.512 -70.471 
0.852 -11.694 -74.730 
1.084 -11.539 -74.614 
8.201 11.414 -61.373 
8.208 11.591 -61.468 
-10.341 0.699 -75.436 
-10.251 0.953 -75.513 
7.370 8.435 -62.315 
7.367 8.641 -62.236 
-4.562 0.161 -67.147 
-4.419 0.412 -67.300 
-15.997 -10.165 -73.111 
-15.889 -9.885 -73.104 
12.261 -0.241 -68.036 
12.306 -0.047 -67.949 
5.483 -12.561 -67.723 
5.623 -12.513 -67.804 
11.662 -3.661 -66.918 
11.841 -3.393 -67.130 
-7.678 8.006 -69.050 
-7.616 8.317 -68.966 
-6.254 -5.067 -68.483 
-6.029 -5.056 -68.656 
8.062 1.647 -74.964 
8.122 1.911 -75.185 
12.748 -5.307 -71.422 
12.876 -5.407 -71.586 
-7.448 3.528 -75.357 
-7.373 3.662 -75.467 
-2.872 -9.826 -65.246 
-2.748 -9.729 -65.397 
7.759 0.104 -60.695 
7.809 0.226 -60.813 
14.358 7.539 -67.362 
14.596 7.565 -67.513 
-14.493 -8.182 -72.667 
-14.449 -8.069 -72.798 
-8.471 -1.850 -66.690 
-8.238 -1.657 -67.127 
11.597 -8.113 -66.718 
11.639 -7.948 -66.865 
2.286 12.235 -61.565 
2.204 12.409 -61.572 
-10.253 11.192 -70.287 
-10.210 11.515 -70.128 
6.420 4.010 -73.606 
6.510 4.166 -73.871 
10.129 6.699 -67.333 
10.163 6.788 -67.464 
2.094 -12.633 -65.365 
2.218 -12.559 -65.363 
7.175 -7.305 -68.963 
7.364 -7.156 -69.161 
5.026 1.437 -65.814 
5.137 1.416 -66.110 
-2.755 -12.963 -65.225 
-2.659 -12.922 -65.323 
4.161 -1.932 -64.212 
4.508 -1.810 -64.584 
-15.696 9.181 -73.275 
-15.766 9.348 -73.427 
7.682 -3.967 -64.683 
7.871 -3.768 -64.783 
0.375 1.967 -63.296 
0.568 2.273 -63.373 
-12.480 -3.104 -71.805 
-12.091 -2.930 -71.861 
15.710 4.039 -68.793 
15.939 4.090 -68.955 
14.841 6.618 -69.593 
15.063 6.659 -69.754 
6.098 1.288 -72.071 
6.211 1.475 -72.284 
3.532 -9.007 -67.132 
3.839 -9.008 -67.204 
13.429 2.742 -67.179 
13.531 3.037 -67.180 
6.678 3.580 -62.510 
6.888 3.757 -62.514 
10.530 0.050 -65.372 
10.639 0.283 -65.402 
2.877 -5.362 -76.629 
2.975 -5.282 -76.551 
-11.911 6.012 -66.224 
-11.875 6.205 -66.219 
-1.258 -6.914 -62.654 
-1.007 -6.667 -62.783 
-13.784 11.046 -68.369 
-13.817 11.283 -68.271 
-2.012 -9.972 -65.555 
-1.934 -9.879 -65.559 
0.676 2.170 -65.314 
0.730 2.248 -65.498 
10.854 -6.522 -73.226 
10.951 -6.591 -73.468 
8.072 -9.965 -70.893 
8.210 -9.908 -71.143 
-14.839 -1.248 -72.703 
-14.678 -0.999 -72.933 
5.747 8.111 -69.416 
5.831 8.329 -69.481 
-13.942 -5.840 -67.188 
[...]
POINT_DATA 1052 
SCALARS Umean double 1 
LOOKUP_TABLE default
0.10177 
0.10177 
0.09872 
0.09872 
0.13214 
0.13214 
0.09114 
0.09114 
0.13020 
0.13020 
0.22084 
0.22084 
0.20671 
0.20671 
0.17358 
0.17358 
0.25520 
0.25520 
0.19077 
0.19077 
0.13468 
0.13468 
0.14323 
0.14323 
0.15298 
0.15298 
0.07527 
0.07527 
0.19008 
0.19008 
0.07234 
0.07234 
0.06632 
0.06632 
0.16527 
0.16527 
0.10663 
0.10663 
0.12553 
0.12553 
0.13193 
0.13193 
0.10055 
0.10055 
0.10479 
0.10479 
0.18937 
0.18937 
0.18608 
0.18608 
0.10327 
0.10327 
0.13358 
0.13358 
0.14954 
0.14954 
0.09444 
0.09444 
0.14009 
0.14009 
0.26752 
0.26752 
0.11154 
0.11154 
0.21918 
0.21918 
0.14002 
0.14002 
0.16438 
0.16438 
0.10529 
0.10529 
0.13340 
0.13340 
0.11380 
0.11380 
0.17906 
0.17906 
0.11686 
0.11686 
0.12855 
0.12855 
0.16954 
0.16954 
0.20740 
0.20740 
0.07203 
0.07203 
0.07267 
0.07267 
0.11598 
0.11598 
0.15066 
0.15066 
0.12596 
0.12596 
0.14430 
0.14430 
0.13569 
0.13569 
0.08813 
0.08813 
0.14547 
0.14547 
0.11441 
0.11441 
0.11399 
0.11399 
0.15553 
0.15553 
0.07610 
0.07610 
0.17674 
0.17674 
0.09552 
0.09552 
0.11712 
0.11712 
0.27699 
0.27699 
0.09185 
0.09185 
0.10706 
0.10706 
0.17282 
0.17282 
0.09689 
0.09689 
0.14521 
0.14521 
0.11603 
0.11603 
0.11835 
0.11835 
0.06056 
0.06056 
0.05733 
0.05733 
0.18861 
0.18861 
0.11998 
0.11998 
0.12484 
0.12484 
0.10573 
0.10573 
0.14134 
0.14134 
0.21131 
0.21131 
0.07576 
0.07576 
0.12860 
0.12860 
0.07799 
0.07799 
0.25720 
0.25720 
0.15046 
0.15046 
0.07198 
0.07198 
0.17524 
0.17524 
0.11765 
0.11765 
0.21160 
0.21160 
0.14417 
0.14417 
0.12051 
0.12051 
0.13430 
0.13430 
0.26557 
0.26557 
0.13824 
0.13824 
0.17015 
0.17015 
0.13276 
0.13276 
0.10784 
0.10784 
0.08482 
0.08482 
0.17021 
0.17021 
0.25568 
0.25568 
0.17902 
0.17902 
0.14478 
0.14478 
0.12195 
0.12195 
0.13852 
0.13852 
0.12919 
0.12919 
0.12169 
0.12169 
0.17421 
0.17421 
0.08104 
0.08104 
0.10316 
0.10316 
0.28667 
0.28667 
0.24034 
0.24034 
0.16623 
0.16623 
0.10112 
0.10112 
0.07750 
0.07750 
0.11100 
0.11100 
0.06293 
0.06293 
0.17318 
0.17318 
0.25376 
0.25376 
0.14512 
0.14512 
0.11268 
0.11268 
0.18102 
0.18102 
0.13469 
0.13469 
0.04288 
0.04288 
0.15553 
0.15553 
0.14099 
0.14099 
0.15647 
0.15647 
0.09697 
0.09697 
0.17542 
0.17542 
0.20943 
0.20943 
0.25555 
0.25555 
0.14797 
0.14797 
0.08629 
0.08629 
0.16011 
0.16011 
0.03546 
0.03546 
0.20586 
0.20586 
0.20138 
0.20138 
0.11242 
0.11242 
0.12752 
0.12752 
0.04004 
0.04004 
0.20193 
0.20193 
0.18427 
0.18427 
0.17707 
0.17707 
0.08769 
0.08769 
0.10490 
0.10490 
0.10213 
0.10213 
0.19235 
0.19235 
0.15724 
0.15724 
0.11674 
0.11674 
0.08216 
0.08216 
0.09528 
0.09528 
0.19933 
0.19933 
0.09681 
0.09681 
0.13216 
0.13216 
0.24240 
0.24240 
0.13484 
0.13484 
0.20339 
0.20339 
0.09792 
0.09792 
0.09467 
0.09467 
0.19264 
0.19264 
0.08259 
0.08259 
0.10679 
0.10679 
0.08184 
0.08184 
0.13583 
0.13583 
0.14293 
0.14293 
0.13741 
0.13741 
0.13033 
0.13033 
0.10135 
0.10135 
0.13144 
0.13144 
0.11273 
0.11273 
0.08268 
0.08268 
0.14847 
0.14847 
0.14482 
0.14482 
0.23892 
0.23892 
0.08737 
0.08737 
0.14919 
0.14919 
0.15108 
0.15108 
0.10050 
0.10050 
0.14013 
0.14013 
0.11032 
0.11032 
0.16345 
0.16345 
0.15009 
0.15009 
0.10866 
0.10866 
0.08436 
0.08436 
0.19288 
0.19288 
0.16403 
0.16403 
0.14202 
0.14202 
0.17474 
0.17474 
0.11541 
0.11541 
0.09445 
0.09445 
0.10907 
0.10907 
0.08847 
0.08847 
0.14153 
0.14153 
0.08926 
0.08926 
0.26576 
0.26576 
0.11247 
0.11247 
0.09624 
0.09624 
0.18129 
0.18129 
0.16020 
0.16020 
0.08099 
0.08099 
0.07221 
0.07221 
0.15583 
0.15583 
0.15841 
0.15841 
0.07159 
0.07159 
0.26157 
0.26157 
0.11821 
0.11821 
0.14605 
0.14605 
0.18494 
0.18494 
0.21490 
0.21490 
0.14255 
0.14255 
0.13864 
0.13864 
0.15257 
0.15257 
0.15767 
0.15767 
0.15607 
0.15607 
0.13734 
0.13734 
0.12949 
0.12949 
0.07431 
0.07431 
0.09820 
0.09820 
0.18752 
0.18752 
0.12929 
0.12929 
0.06072 
0.06072 
0.10351 
0.10351 
0.13485 
0.13485 
0.14560 
0.14560 
0.18763 
0.18763 
0.12125 
0.12125 
0.17466 
0.17466 
0.12757 
0.12757 
0.33468 
0.33468 
0.18034 
0.18034 
0.19154 
0.19154 
0.09027 
0.09027 
0.05691 
0.05691 
0.13257 
0.13257 
0.17573 
0.17573 
0.26536 
0.26536 
0.12294 
0.12294 
0.06094 
0.06094 
0.10510 
0.10510 
0.09870 
0.09870 
0.12041 
0.12041 
0.09313 
0.09313 
0.19439 
0.19439 
0.26856 
0.26856 
0.08394 
0.08394 
0.06953 
0.06953 
0.13466 
0.13466 
0.22271 
0.22271 
0.20469 
0.20469 
0.13199 
0.13199 
0.11968 
0.11968 
0.12778 
0.12778 
0.13503 
0.13503 
0.12227 
0.12227 
0.04839 
0.04839 
0.12990 
0.12990 
0.17099 
0.17099 
0.07164 
0.07164 
0.20884 
0.20884 
0.13064 
0.13064 
0.13498 
0.13498 
0.12213 
0.12213 
0.21575 
0.21575 
0.12551 
0.12551 
0.10712 
0.10712 
0.26232 
0.26232 
0.25447 
0.25447 
0.23821 
0.23821 
0.21925 
0.21925 
0.17835 
0.17835 
0.12919 
0.12919 
0.16635 
0.16635 
0.10106 
0.10106 
0.14115 
0.14115 
0.10736 
0.10736 
0.06853 
0.06853 
0.10305 
0.10305 
0.06146 
0.06146 
0.13765 
0.13765 
0.14019 
0.14019 
0.26210 
0.26210 
0.10401 
0.10401 
0.19738 
0.19738 
0.05751 
0.05751 
0.09017 
0.09017 
0.13965 
0.13965 
0.33329 
0.33329 
0.24710 
0.24710 
0.15574 
0.15574 
0.11314 
0.11314 
0.12676 
0.12676 
0.11474 
0.11474 
0.11800 
0.11800 
0.14448 
0.14448 
0.16754 
0.16754 
0.14958 
0.14958 
0.11800 
0.11800 
0.08401 
0.08401 
0.14053 
0.14053 
0.13786 
0.13786 
0.16358 
0.16358 
0.14089 
0.14089 
0.14401 
0.14401 
0.09603 
0.09603 
0.12674 
0.12674 
0.05232 
0.05232 
0.07611 
0.07611 
0.15177 
0.15177 
0.23090 
0.23090 
0.14025 
0.14025 
0.13469 
0.13469 
0.11702 
0.11702 
0.15533 
0.15533 
0.14089 
0.14089 
0.20170 
0.20170 
0.27083 
0.27083 
0.15601 
0.15601 
0.19241 
0.19241 
0.14388 
0.14388 
0.15958 
0.15958 
0.10702 
0.10702 
0.08286 
0.08286 
0.12546 
0.12546 
0.15051 
0.15051 
0.04180 
0.04180 
0.06492 
0.06492 
0.07336 
0.07336 
0.08641 
0.08641 
0.12429 
0.12429 
0.15853 
0.15853 
0.17184 
0.17184 
0.20381 
0.20381 
0.11494 
0.11494 
0.16104 
0.16104 
0.07140 
0.07140 
0.14698 
0.14698 
0.15381 
0.15381 
0.09916 
0.09916 
0.15469 
0.15469 
0.13489 
0.13489 
0.14686 
0.14686 
0.07978 
0.07978 
0.12044 
0.12044 
0.13752 
0.13752 
0.08209 
0.08209 
0.12314 
0.12314 
0.09337 
0.09337 
0.18446 
0.18446 
0.15818 
0.15818 
0.09048 
0.09048 
0.10395 
0.10395 
0.14458 
0.14458 
0.10803 
0.10803 
0.13141 
0.13141 
0.12743 
0.12743 
0.26739 
0.26739 
0.22894 
0.22894 
0.18191 
0.18191 
0.17244 
0.17244 
0.13723 
0.13723 
0.08931 
0.08931 
0.25886 
0.25886 
0.14299 
0.14299 
0.12554 
0.12554 
0.14089 
0.14089 
0.21773 
0.21773 
0.06827 
0.06827 
0.20423 
0.20423 
0.12396 
0.12396 
0.06388 
0.06388 
0.14112 
0.14112 
0.16910 
0.16910 
0.20725 
0.20725 
0.08557 
0.08557 
0.07443 
0.07443 
0.13548 
0.13548 
0.15787 
0.15787 
0.11441 
0.11441 
0.32130 
0.32130 
0.12981 
0.12981 
0.15154 
0.15154 
0.11910 
0.11910 
0.08715 
0.08715 
0.13926 
0.13926 
0.20199 
0.20199 
0.07773 
0.07773 
0.20521 
0.20521 
0.15826 
0.15826 
0.19107 
0.19107 
0.10019 
0.10019 
0.28089 
0.28089 
0.16239 
0.16239 
0.10863 
0.10863 
0.08720 
0.08720 
0.13310 
0.13310 
0.18448 
0.18448 
0.15970 
0.15970 
0.12905 
0.12905 
0.07880 
0.07880 
0.13222 
0.13222 
0.07404 
0.07404 
0.10172 
0.10172 
0.07629 
0.07629 
0.16214 
0.16214 
0.21134 
0.21134 
0.09030 
0.09030 
0.10148 
0.10148 
0.11509 
0.11509 
0.08567 
0.08567 
0.09599 
0.09599 
0.17923 
0.17923 
0.11126 
0.11126 
0.18407 
0.18407 
0.10838 
0.10838 
0.10111 
0.10111 
0.07909 
0.07909 
0.18201 
0.18201 
0.16612 
0.16612 
0.15047 
0.15047 
0.27121 
0.27121 
0.10387 
0.10387 
0.21687 
0.21687 
0.14705 
0.14705 
0.13793 
0.13793 
0.08912 
0.08912 
0.10930 
0.10930 
0.17301 
0.17301 
0.17599 
0.17599 
0.06773 
0.06773 
0.15807 
0.15807 
0.10622 
0.10622 
0.06747 
0.06747 
0.13268 
0.13268 
0.08573 
0.08573 
0.13331 
0.13331 
0.08958 
0.08958 
0.15064 
0.15064 
0.12367 
0.12367 
0.17929 
0.17929 
0.16446 
0.16446 
0.17203 
0.17203 
0.10681 
0.10681 
0.10766 
0.10766 
0.08005 
0.08005 
0.08186 
0.08186 
0.09076 
0.09076 
0.05764 
0.05764 
0.13373 
0.13373 
0.18806 
0.18806 
0.14583 
0.14583 
0.20878 
0.20878 
0.09880 
0.09880 
0.13829 
0.13829 
0.11479 
0.11479 
0.12293 
0.12293 
0.15172 
0.15172 
0.11370 
0.11370 
0.14368 
0.14368 
0.08895 
0.08895 
0.13260 
0.13260 
0.10507 
0.10507 
0.06596 
0.06596 
0.24093 
0.24093 
0.27677 
0.27677 
0.11995 
0.11995 
0.09652 
0.09652 
0.09122 
0.09122 
0.13066 
0.13066 
0.12016 
0.12016 
0.12103 
0.12103 
0.15475 
0.15475 
0.15822 
0.15822 
0.07501 
0.07501 
0.11873 
0.11873 
0.10762 
0.10762 
0.11858 
0.11858 
0.08830 
0.08830 
0.19790 
0.19790 
0.06882 
0.06882 
0.09882 
0.09882 
0.11077 
0.11077 
0.16135 
0.16135 
0.22012 
0.22012 
0.09334 
0.09334 
0.16092 
0.16092 
0.07853 
0.07853 
0.17061 
0.17061 
0.08009 
0.08009 
0.11976 
0.11976 
0.10460 
0.10460 
0.08433 
0.08433 
0.23434 
0.23434 
0.18796 
0.18796 
0.08268 
0.08268 
0.11064 
0.11064 
0.10635 
0.10635 
0.13478 
0.13478 
0.08983 
0.08983 
0.03254 
0.03254 
0.18640 
0.18640 
0.21776 
0.21776 
0.15770 
0.15770 
0.03813 
0.03813 
0.13886 
0.13886 
0.13883 
0.13883 
0.20552 
0.20552 
0.13983 
0.13983 
0.09803 
0.09803 
0.13237 
0.13237 
0.13077 
0.13077 
0.16568 
0.16568 
0.16225 
0.16225 
0.08557 
0.08557 
0.20114 
0.20114 
0.15920 
0.15920 
0.11190 
0.11190 
0.07031 
0.07031 
0.07534 
0.07534 
0.31431 
0.31431 
0.16981 
0.16981 
0.18600 
0.18600 
0.12627 
0.12627 
0.10347 
0.10347 
0.10152 
0.10152 
0.11254 
0.11254 
0.07496 
0.07496 
0.14935 
0.14935 
0.11359 
0.11359 
0.22363 
0.22363 
0.16774 
0.16774 
0.06798 
0.06798 
0.12610 
0.12610 
SCALARS Umean_X double 1 
LOOKUP_TABLE default
-0.03200 
-0.03200 
0.00950 
0.00950 
0.02500 
0.02500 
0.01350 
0.01350 
-0.05200 
-0.05200 
0.07200 
0.07200 
0.08750 
0.08750 
0.00950 
0.00950 
0.10100 
0.10100 
0.03750 
0.03750 
-0.01450 
-0.01450 
0.05750 
0.05750 
0.03800 
0.03800 
-0.00400 
-0.00400 
-0.03900 
-0.03900 
0.01150 
0.01150 
-0.04900 
-0.04900 
0.09200 
0.09200 
0.03650 
0.03650 
-0.00250 
-0.00250 
0.05300 
0.05300 
-0.01250 
-0.01250 
0.06000 
0.06000 
0.00200 
0.00200 
0.07700 
0.07700 
-0.07800 
-0.07800 
-0.01100 
-0.01100 
0.08900 
0.08900 
0.03100 
0.03100 
0.05400 
0.05400 
0.15300 
0.15300 
-0.00700 
-0.00700 
0.06500 
0.06500 
0.01950 
0.01950 
0.03550 
0.03550 
-0.01900 
-0.01900 
0.05950 
0.05950 
-0.00050 
-0.00050 
0.05000 
0.05000 
0.00450 
0.00450 
0.10850 
0.10850 
0.03550 
0.03550 
0.05800 
0.05800 
0.05600 
0.05600 
-0.00450 
-0.00450 
0.07200 
0.07200 
-0.04200 
-0.04200 
0.06800 
0.06800 
0.05550 
0.05550 
-0.01450 
-0.01450 
0.02500 
0.02500 
0.03750 
0.03750 
0.07600 
0.07600 
0.02450 
0.02450 
-0.03100 
-0.03100 
-0.01350 
-0.01350 
0.10950 
0.10950 
0.00500 
0.00500 
0.00850 
0.00850 
0.09200 
0.09200 
0.03500 
0.03500 
0.02250 
0.02250 
0.03300 
0.03300 
0.00200 
0.00200 
0.02100 
0.02100 
0.06550 
0.06550 
0.03900 
0.03900 
0.02300 
0.02300 
0.01300 
0.01300 
0.06900 
0.06900 
0.03550 
0.03550 
0.11650 
0.11650 
0.00300 
0.00300 
0.01450 
0.01450 
-0.06350 
-0.06350 
-0.01600 
-0.01600 
0.02700 
0.02700 
0.00450 
0.00450 
0.08000 
0.08000 
0.11600 
0.11600 
0.03600 
0.03600 
0.01750 
0.01750 
-0.02250 
-0.02250 
0.13450 
0.13450 
-0.01750 
-0.01750 
0.03150 
0.03150 
-0.00300 
-0.00300 
0.14050 
0.14050 
0.03850 
0.03850 
0.13300 
0.13300 
-0.10500 
-0.10500 
0.07450 
0.07450 
0.04500 
0.04500 
0.12150 
0.12150 
0.10200 
0.10200 
0.13350 
0.13350 
0.04250 
0.04250 
0.04100 
0.04100 
0.01650 
0.01650 
-0.05450 
-0.05450 
0.08600 
0.08600 
0.08150 
0.08150 
-0.01850 
-0.01850 
0.02100 
0.02100 
0.13550 
0.13550 
0.03450 
0.03450 
0.07300 
0.07300 
-0.00300 
-0.00300 
-0.06850 
-0.06850 
0.03650 
0.03650 
0.01850 
0.01850 
0.09750 
0.09750 
0.04350 
0.04350 
0.05300 
0.05300 
0.05050 
0.05050 
0.02500 
0.02500 
-0.03000 
-0.03000 
0.03450 
0.03450 
-0.02250 
-0.02250 
0.09500 
0.09500 
0.03900 
0.03900 
0.02900 
0.02900 
0.12600 
0.12600 
0.16100 
0.16100 
0.01500 
0.01500 
0.04600 
0.04600 
0.02800 
0.02800 
-0.04300 
-0.04300 
0.01100 
0.01100 
0.16250 
0.16250 
0.09350 
0.09350 
-0.03250 
-0.03250 
0.10100 
0.10100 
-0.01100 
-0.01100 
0.05450 
0.05450 
0.07450 
0.07450 
0.13350 
0.13350 
0.06450 
0.06450 
0.03000 
0.03000 
0.07950 
0.07950 
0.11150 
0.11150 
0.03150 
0.03150 
-0.01000 
-0.01000 
-0.01300 
-0.01300 
0.06650 
0.06650 
-0.00700 
-0.00700 
-0.04050 
-0.04050 
0.02500 
0.02500 
0.12900 
0.12900 
-0.04200 
-0.04200 
0.08900 
0.08900 
-0.03900 
-0.03900 
-0.02100 
-0.02100 
0.12000 
0.12000 
0.03950 
0.03950 
0.03550 
0.03550 
-0.00700 
-0.00700 
0.07350 
0.07350 
0.07400 
0.07400 
0.06550 
0.06550 
0.07350 
0.07350 
0.07150 
0.07150 
0.03050 
0.03050 
-0.00900 
-0.00900 
-0.00550 
-0.00550 
0.02100 
0.02100 
0.07950 
0.07950 
0.10200 
0.10200 
0.05150 
0.05150 
0.08700 
0.08700 
0.11600 
0.11600 
0.00350 
0.00350 
0.04500 
0.04500 
-0.00150 
-0.00150 
0.07150 
0.07150 
0.05400 
0.05400 
0.02250 
0.02250 
0.07000 
0.07000 
0.08950 
0.08950 
0.03100 
0.03100 
0.11250 
0.11250 
0.03000 
0.03000 
0.06400 
0.06400 
0.03750 
0.03750 
0.06200 
0.06200 
0.02500 
0.02500 
0.11900 
0.11900 
0.02200 
0.02200 
0.11650 
0.11650 
0.02100 
0.02100 
-0.04100 
-0.04100 
0.02150 
0.02150 
0.04500 
0.04500 
0.01700 
0.01700 
0.06200 
0.06200 
0.09450 
0.09450 
0.05550 
0.05550 
0.04800 
0.04800 
0.17350 
0.17350 
-0.03500 
-0.03500 
0.09450 
0.09450 
0.09650 
0.09650 
0.19450 
0.19450 
0.11450 
0.11450 
0.11100 
0.11100 
0.05650 
0.05650 
0.15350 
0.15350 
0.05100 
0.05100 
0.10500 
0.10500 
0.05450 
0.05450 
0.04900 
0.04900 
0.01800 
0.01800 
0.12550 
0.12550 
-0.01650 
-0.01650 
0.03900 
0.03900 
0.02700 
0.02700 
0.04850 
0.04850 
0.06900 
0.06900 
0.08050 
0.08050 
0.04200 
0.04200 
0.08100 
0.08100 
0.07950 
0.07950 
0.10500 
0.10500 
0.08750 
0.08750 
0.09600 
0.09600 
0.01400 
0.01400 
-0.04000 
-0.04000 
-0.02150 
-0.02150 
-0.00300 
-0.00300 
0.08350 
0.08350 
0.01700 
0.01700 
-0.05300 
-0.05300 
-0.02050 
-0.02050 
-0.03150 
-0.03150 
0.03950 
0.03950 
0.03450 
0.03450 
0.01700 
0.01700 
0.08800 
0.08800 
0.07250 
0.07250 
0.03950 
0.03950 
0.06950 
0.06950 
0.10500 
0.10500 
-0.00700 
-0.00700 
0.03950 
0.03950 
-0.00250 
-0.00250 
0.00500 
0.00500 
0.04750 
0.04750 
0.04350 
0.04350 
0.02500 
0.02500 
-0.01150 
-0.01150 
0.11150 
0.11150 
0.00050 
0.00050 
0.01300 
0.01300 
0.05100 
0.05100 
0.02800 
0.02800 
-0.09050 
-0.09050 
0.07850 
0.07850 
0.01650 
0.01650 
0.04150 
0.04150 
0.10200 
0.10200 
0.07600 
0.07600 
0.13250 
0.13250 
0.07700 
0.07700 
0.10150 
0.10150 
0.06600 
0.06600 
0.06050 
0.06050 
0.03600 
0.03600 
0.05850 
0.05850 
0.02800 
0.02800 
0.05000 
0.05000 
0.07950 
0.07950 
0.05100 
0.05100 
0.10000 
0.10000 
0.06150 
0.06150 
0.07650 
0.07650 
0.01050 
0.01050 
0.00550 
0.00550 
-0.00300 
-0.00300 
0.05300 
0.05300 
0.10250 
0.10250 
0.09600 
0.09600 
0.16450 
0.16450 
0.06000 
0.06000 
0.08250 
0.08250 
0.11900 
0.11900 
0.05200 
0.05200 
0.04450 
0.04450 
0.11550 
0.11550 
0.06050 
0.06050 
0.09600 
0.09600 
0.05500 
0.05500 
0.05850 
0.05850 
0.02750 
0.02750 
0.04050 
0.04050 
0.12100 
0.12100 
0.10250 
0.10250 
0.00850 
0.00850 
0.03750 
0.03750 
-0.00500 
-0.00500 
0.03700 
0.03700 
-0.01100 
-0.01100 
-0.00850 
-0.00850 
0.01500 
0.01500 
0.12850 
0.12850 
0.07050 
0.07050 
-0.05500 
-0.05500 
0.08150 
0.08150 
0.10500 
0.10500 
0.07700 
0.07700 
0.11500 
0.11500 
0.01450 
0.01450 
0.12600 
0.12600 
-0.06450 
-0.06450 
0.01750 
0.01750 
0.00500 
0.00500 
0.01150 
0.01150 
0.04450 
0.04450 
0.00100 
0.00100 
-0.02900 
-0.02900 
0.00600 
0.00600 
0.01600 
0.01600 
-0.01050 
-0.01050 
0.04000 
0.04000 
0.06200 
0.06200 
0.08850 
0.08850 
0.05850 
0.05850 
0.03450 
0.03450 
0.05400 
0.05400 
-0.05550 
-0.05550 
0.07350 
0.07350 
0.11150 
0.11150 
-0.02200 
-0.02200 
0.05850 
0.05850 
0.12650 
0.12650 
0.07600 
0.07600 
-0.02200 
-0.02200 
0.03000 
0.03000 
0.09300 
0.09300 
0.07700 
0.07700 
0.05650 
0.05650 
-0.01400 
-0.01400 
0.10700 
0.10700 
0.10550 
0.10550 
0.06900 
0.06900 
-0.04300 
-0.04300 
0.05800 
0.05800 
0.02100 
0.02100 
0.09100 
0.09100 
0.08900 
0.08900 
0.08250 
0.08250 
0.08550 
0.08550 
0.13700 
0.13700 
0.10550 
0.10550 
0.03750 
0.03750 
0.08000 
0.08000 
-0.01600 
-0.01600 
0.13350 
0.13350 
0.06400 
0.06400 
0.10700 
0.10700 
0.18050 
0.18050 
-0.03600 
-0.03600 
0.02750 
0.02750 
0.06050 
0.06050 
0.01000 
0.01000 
0.03550 
0.03550 
0.12050 
0.12050 
0.02850 
0.02850 
-0.02950 
-0.02950 
0.05950 
0.05950 
-0.01250 
-0.01250 
0.09750 
0.09750 
0.05200 
0.05200 
0.08950 
0.08950 
0.09450 
0.09450 
0.05350 
0.05350 
0.01300 
0.01300 
0.06550 
0.06550 
-0.00550 
-0.00550 
0.13450 
0.13450 
0.06000 
0.06000 
0.11500 
0.11500 
0.04300 
0.04300 
0.10050 
0.10050 
0.06750 
0.06750 
0.12100 
0.12100 
0.09700 
0.09700 
-0.02250 
-0.02250 
-0.02150 
-0.02150 
0.12400 
0.12400 
0.04850 
0.04850 
0.05200 
0.05200 
0.08550 
0.08550 
-0.04050 
-0.04050 
0.09600 
0.09600 
0.05250 
0.05250 
0.05900 
0.05900 
0.02400 
0.02400 
0.01650 
0.01650 
0.06150 
0.06150 
0.02100 
0.02100 
0.05950 
0.05950 
-0.01500 
-0.01500 
-0.00100 
-0.00100 
0.05100 
0.05100 
0.08850 
0.08850 
0.02650 
0.02650 
0.03900 
0.03900 
0.03800 
0.03800 
0.08550 
0.08550 
0.07450 
0.07450 
-0.01200 
-0.01200 
0.08000 
0.08000 
0.01550 
0.01550 
0.19400 
0.19400 
0.06800 
0.06800 
0.07550 
0.07550 
0.07600 
0.07600 
0.01400 
0.01400 
0.05550 
0.05550 
0.09300 
0.09300 
0.00250 
0.00250 
0.10450 
0.10450 
0.06250 
0.06250 
-0.01300 
-0.01300 
0.09450 
0.09450 
-0.01000 
-0.01000 
0.11300 
0.11300 
-0.04900 
-0.04900 
0.07550 
0.07550 
0.02200 
0.02200 
0.07800 
0.07800 
0.08200 
0.08200 
0.14250 
0.14250 
0.08000 
0.08000 
0.09050 
0.09050 
0.02800 
0.02800 
0.09450 
0.09450 
0.07150 
0.07150 
-0.02200 
-0.02200 
0.01600 
0.01600 
0.03400 
0.03400 
0.08450 
0.08450 
0.04750 
0.04750 
0.02900 
0.02900 
-0.04800 
-0.04800 
0.07050 
0.07050 
0.10500 
0.10500 
0.11200 
0.11200 
0.05250 
0.05250 
-0.01450 
-0.01450 
0.07650 
0.07650 
0.07200 
0.07200 
0.08350 
0.08350 
0.06750 
0.06750 
-0.00550 
-0.00550 
-0.02550 
-0.02550 
0.10450 
0.10450 
0.11300 
0.11300 
0.00650 
0.00650 
0.05750 
0.05750 
0.03450 
0.03450 
-0.05650 
-0.05650 
-0.01150 
-0.01150 
0.05100 
0.05100 
0.09000 
0.09000 
0.00500 
0.00500 
-0.02950 
-0.02950 
0.09550 
0.09550 
-0.03200 
-0.03200 
0.07700 
0.07700 
-0.05300 
-0.05300 
0.09250 
0.09250 
0.03250 
0.03250 
-0.01600 
-0.01600 
0.06150 
0.06150 
0.08650 
0.08650 
0.08800 
0.08800 
-0.01550 
-0.01550 
0.13300 
0.13300 
0.03750 
0.03750 
0.04150 
0.04150 
0.04850 
0.04850 
0.02850 
0.02850 
0.00300 
0.00300 
0.07100 
0.07100 
0.04300 
0.04300 
0.00300 
0.00300 
0.06100 
0.06100 
0.03000 
0.03000 
0.07200 
0.07200 
0.07300 
0.07300 
0.03150 
0.03150 
-0.00550 
-0.00550 
0.00500 
0.00500 
0.08250 
0.08250 
0.05950 
0.05950 
0.02300 
0.02300 
0.04200 
0.04200 
-0.04450 
-0.04450 
0.10850 
0.10850 
-0.03450 
-0.03450 
-0.03650 
-0.03650 
0.08950 
0.08950 
0.05250 
0.05250 
0.05950 
0.05950 
0.05800 
0.05800 
-0.00250 
-0.00250 
0.08050 
0.08050 
0.12550 
0.12550 
0.04850 
0.04850 
0.06800 
0.06800 
0.06950 
0.06950 
0.19200 
0.19200 
0.09400 
0.09400 
0.01250 
0.01250 
0.03800 
0.03800 
0.00500 
0.00500 
0.00100 
0.00100 
0.05150 
0.05150 
-0.04050 
-0.04050 
0.05450 
0.05450 
0.08350 
0.08350 
0.03600 
0.03600 
-0.00000 
-0.00000 
-0.01200 
-0.01200 
-0.01350 
-0.01350 
SCALARS Umean_Y double 1 
LOOKUP_TABLE default
0.09650 
0.09650 
0.09650 
0.09650 
0.09100 
0.09100 
0.08600 
0.08600 
0.11650 
0.11650 
0.17650 
0.17650 
0.12550 
0.12550 
0.01050 
0.01050 
0.13000 
0.13000 
0.13050 
0.13050 
0.13300 
0.13300 
0.12000 
0.12000 
0.14150 
0.14150 
0.07500 
0.07500 
0.18000 
0.18000 
0.05950 
0.05950 
-0.02900 
-0.02900 
0.12300 
0.12300 
0.04600 
0.04600 
0.11050 
0.11050 
0.11650 
0.11650 
0.09450 
0.09450 
0.05500 
0.05500 
0.17300 
0.17300 
0.12250 
0.12250 
0.02200 
0.02200 
0.11100 
0.11100 
0.12000 
0.12000 
0.08900 
0.08900 
-0.01800 
-0.01800 
0.09250 
0.09250 
0.10800 
0.10800 
0.18050 
0.18050 
0.06400 
0.06400 
0.15150 
0.15150 
0.10350 
0.10350 
0.11400 
0.11400 
0.09050 
0.09050 
0.09000 