# vtk DataFile Version 2.1 
Trajects from timestep 26 with color option 
ASCII 
 
DATASET POLYDATA POINTS 796 float 
-6.393 6.342 -72.575 
-6.331 6.451 -72.692 
-4.550 3.184 -71.443 
-4.636 3.287 -71.642 
-0.206 5.251 -69.419 
-0.284 5.369 -69.541 
-1.319 6.603 -70.262 
-1.434 6.690 -70.436 
-1.642 -7.509 -73.570 
-1.709 -7.459 -73.553 
3.237 8.513 -73.155 
3.282 8.429 -73.344 
-4.170 10.512 -71.801 
-4.216 10.636 -71.895 
-1.758 9.496 -73.704 
-1.734 9.585 -73.874 
5.547 -9.465 -74.952 
5.522 -9.389 -75.075 
-0.802 9.474 -71.106 
-0.838 9.471 -71.253 
-6.253 0.350 -69.966 
-6.262 0.395 -69.802 
2.270 -2.954 -71.351 
2.350 -2.817 -71.482 
4.470 4.177 -71.991 
4.367 4.187 -72.095 
-0.337 -6.486 -71.395 
-0.405 -6.438 -71.382 
-5.885 -5.967 -70.979 
-5.895 -5.810 -70.912 
-10.800 -3.054 -75.585 
-10.884 -3.093 -75.684 
0.456 2.353 -68.578 
0.481 2.493 -68.690 
-8.243 10.900 -72.523 
-8.305 10.842 -72.682 
-4.918 5.284 -71.017 
-4.928 5.383 -71.085 
-2.346 7.240 -70.888 
-2.459 7.398 -71.128 
-3.151 -1.945 -71.832 
-3.198 -1.781 -71.894 
-6.693 9.842 -70.790 
-6.728 9.990 -70.794 
5.328 1.577 -67.638 
5.319 1.602 -67.668 
1.209 3.628 -67.822 
1.267 3.743 -67.939 
10.082 2.818 -70.958 
10.035 2.848 -71.059 
-12.100 5.305 -73.647 
-12.145 5.297 -73.654 
1.626 1.857 -68.614 
1.640 1.979 -68.778 
9.719 -2.320 -74.087 
9.842 -2.325 -74.187 
-2.086 8.688 -70.975 
-2.265 8.752 -71.182 
10.870 4.634 -70.545 
10.722 4.729 -70.602 
-1.893 -3.334 -73.881 
-2.023 -3.324 -73.899 
7.303 7.826 -67.512 
7.223 7.924 -67.668 
0.427 -0.167 -66.375 
0.431 0.072 -66.500 
4.716 -7.038 -70.839 
4.734 -6.964 -70.965 
1.135 0.037 -65.879 
1.159 0.310 -66.008 
4.337 1.386 -71.802 
4.336 1.462 -71.964 
8.005 1.101 -67.653 
8.061 1.235 -67.730 
14.155 2.052 -72.884 
14.100 2.134 -73.085 
-7.484 -4.962 -70.401 
-7.495 -4.877 -70.332 
4.041 6.663 -67.345 
3.980 6.865 -67.336 
6.980 0.246 -67.125 
7.017 0.339 -67.217 
13.602 0.399 -69.420 
13.616 0.512 -69.534 
-0.988 10.561 -68.787 
-1.000 10.583 -68.901 
-7.963 4.602 -66.841 
-7.889 4.789 -66.931 
6.898 -6.034 -68.192 
7.015 -5.900 -68.257 
-3.011 -9.331 -69.371 
-2.966 -9.152 -69.308 
-1.452 10.491 -66.994 
-1.548 10.629 -67.040 
-6.602 -7.624 -68.027 
-6.545 -7.381 -68.057 
-1.771 -11.910 -74.410 
-1.707 -11.927 -74.331 
-3.818 5.927 -68.162 
-3.825 6.177 -68.208 
-13.247 10.267 -73.716 
-13.344 10.272 -73.653 
-11.851 -4.496 -74.390 
-11.902 -4.531 -74.415 
12.163 1.202 -71.470 
12.149 1.317 -71.710 
3.196 8.816 -67.516 
3.075 8.958 -67.593 
17.288 2.311 -70.717 
17.266 2.389 -70.879 
-1.024 4.319 -68.257 
-1.023 4.412 -68.371 
-7.373 -5.169 -71.647 
-7.398 -5.017 -71.536 
2.268 -6.716 -70.766 
2.225 -6.669 -70.835 
-3.304 1.274 -68.054 
-3.250 1.573 -68.085 
1.900 1.264 -67.636 
1.905 1.364 -67.737 
0.156 9.597 -64.028 
0.138 9.840 -64.129 
-7.995 -12.358 -69.371 
-7.953 -12.060 -69.481 
2.413 6.105 -68.153 
2.238 6.257 -68.140 
-11.019 -4.616 -69.813 
-10.999 -4.556 -69.724 
-1.039 6.848 -61.723 
-1.048 7.056 -61.795 
2.733 0.163 -76.825 
2.744 0.137 -76.987 
-5.448 3.932 -62.641 
-5.452 4.201 -62.712 
-3.451 -3.068 -70.983 
-3.306 -2.934 -70.995 
-5.388 -5.727 -70.409 
-5.406 -5.574 -70.351 
9.310 1.461 -65.522 
9.330 1.588 -65.587 
-11.433 -3.717 -67.904 
-11.312 -3.457 -67.804 
-10.368 -6.126 -69.579 
-10.285 -5.857 -69.519 
-5.412 2.058 -66.062 
-5.404 2.335 -66.127 
3.825 5.143 -66.461 
3.805 5.348 -66.562 
-9.205 -8.341 -70.294 
-9.167 -8.274 -69.973 
0.089 -0.192 -63.837 
0.200 0.124 -63.891 
-9.419 -7.448 -70.558 
-9.383 -7.438 -70.368 
-9.989 1.031 -67.807 
-9.942 1.112 -67.935 
-1.257 -0.794 -69.454 
-1.189 -0.626 -69.568 
4.088 -2.404 -62.151 
4.126 -2.094 -62.324 
-9.631 -6.895 -67.531 
-9.474 -6.787 -67.270 
-11.273 -9.206 -69.696 
-11.258 -8.950 -69.639 
-7.555 5.108 -63.859 
-7.506 5.339 -63.939 
2.593 13.048 -65.062 
2.703 13.163 -65.010 
5.716 11.814 -69.500 
5.682 11.804 -69.607 
-7.465 -3.581 -66.156 
-7.350 -3.311 -66.071 
-1.068 2.047 -69.930 
-1.055 2.220 -70.084 
-4.031 6.515 -71.568 
-4.151 6.634 -71.614 
5.247 3.320 -65.949 
5.315 3.438 -65.979 
11.206 -5.815 -67.971 
11.317 -5.567 -68.001 
-6.391 4.447 -67.610 
-6.428 4.645 -67.723 
4.435 1.878 -66.054 
4.451 2.017 -66.148 
-7.146 6.013 -61.666 
-7.108 6.236 -61.695 
-11.490 7.083 -70.997 
-11.576 7.092 -71.001 
-10.128 -10.221 -66.732 
-10.299 -10.081 -66.616 
-2.399 1.585 -67.880 
-2.389 1.840 -68.007 
-6.760 -6.527 -70.028 
-6.705 -6.382 -70.007 
2.666 3.543 -69.090 
2.660 3.677 -69.229 
12.332 -5.353 -69.766 
12.324 -5.287 -69.791 
-4.472 6.046 -71.192 
-4.557 6.142 -71.301 
5.165 -7.505 -63.422 
5.185 -7.361 -63.423 
-13.099 -2.515 -70.903 
-13.243 -2.407 -70.895 
3.916 7.864 -72.895 
3.981 7.811 -72.970 
14.452 8.476 -71.040 
14.298 8.538 -71.165 
-1.977 -12.845 -64.948 
-1.934 -12.609 -65.094 
13.811 -5.784 -71.477 
13.882 -5.615 -71.545 
-8.963 8.643 -72.906 
-8.981 8.666 -73.008 
-2.237 -8.630 -68.463 
-2.144 -8.375 -68.573 
5.063 9.006 -70.280 
4.814 8.988 -70.355 
-4.051 11.934 -63.299 
-3.993 12.182 -63.442 
3.271 -1.616 -70.482 
3.428 -1.434 -70.671 
-10.391 -2.710 -68.065 
-10.357 -2.476 -68.022 
6.981 -5.391 -69.354 
6.980 -5.335 -69.426 
5.211 -5.470 -71.348 
5.182 -5.449 -71.434 
1.429 -11.058 -69.172 
1.550 -10.954 -69.266 
-10.100 -8.780 -67.164 
-10.004 -8.556 -66.848 
-10.062 6.669 -62.453 
-10.000 6.857 -62.473 
4.388 1.688 -74.773 
4.303 1.684 -74.926 
-7.406 -9.114 -67.440 
-7.291 -8.974 -67.496 
7.421 9.781 -70.307 
7.241 9.800 -70.395 
-1.510 2.374 -65.682 
-1.534 2.601 -65.808 
-6.699 11.660 -73.253 
-6.921 11.747 -73.415 
3.496 3.849 -70.388 
3.418 3.904 -70.514 
-11.392 4.270 -67.936 
-11.480 4.236 -68.029 
1.968 2.687 -60.736 
2.008 2.868 -60.898 
8.901 -3.763 -67.120 
8.999 -3.660 -67.179 
11.572 -2.631 -67.877 
11.625 -2.492 -67.976 
14.162 4.279 -72.391 
14.089 4.403 -72.483 
-6.401 -9.271 -71.037 
-6.292 -9.096 -70.844 
11.268 -6.669 -69.324 
11.373 -6.562 -69.335 
12.460 10.671 -68.410 
12.390 10.729 -68.507 
10.875 -6.271 -68.875 
10.941 -6.191 -68.853 
-10.717 2.310 -68.471 
-10.741 2.253 -68.626 
-15.342 1.588 -75.998 
-15.412 1.307 -75.986 
4.195 0.871 -66.915 
4.104 1.031 -67.073 
2.481 -5.617 -68.002 
2.671 -5.366 -68.069 
2.498 6.142 -62.965 
2.479 6.404 -62.942 
2.268 8.162 -76.078 
2.315 8.173 -76.109 
-13.773 12.147 -67.685 
-13.849 12.140 -67.622 
0.680 -8.169 -71.865 
0.614 -8.134 -71.852 
2.028 -3.806 -64.431 
2.230 -3.519 -64.604 
-9.709 9.049 -63.255 
-9.557 9.116 -63.300 
-11.859 9.802 -65.071 
-11.863 9.755 -65.089 
-6.952 -4.154 -66.298 
-6.899 -3.781 -66.221 
8.164 3.821 -74.599 
8.091 3.812 -74.761 
15.005 8.261 -67.232 
14.932 8.315 -67.451 
-2.415 11.810 -62.644 
-2.332 12.016 -62.653 
4.464 10.349 -72.391 
4.337 10.315 -72.569 
9.705 7.932 -71.932 
9.486 7.978 -72.030 
-12.586 10.111 -65.776 
-12.602 10.103 -65.747 
12.995 7.824 -69.658 
12.878 7.752 -69.740 
-11.497 -6.674 -67.813 
-11.408 -6.646 -67.587 
-10.778 9.362 -75.755 
-10.965 9.439 -75.742 
-10.247 0.346 -62.553 
-10.282 0.584 -62.660 
-1.567 -6.225 -63.406 
-1.437 -5.913 -63.515 
-0.966 8.027 -62.056 
-0.906 8.269 -62.128 
9.312 -11.574 -70.149 
9.405 -11.466 -70.205 
-8.858 -0.741 -64.716 
-8.825 -0.592 -64.687 
2.062 -4.253 -73.786 
2.081 -4.252 -73.977 
-1.528 -12.721 -69.957 
-1.287 -12.638 -69.852 
-12.111 2.818 -68.873 
-12.161 2.738 -68.963 
1.207 -6.154 -67.746 
1.412 -5.846 -67.821 
11.799 -7.192 -70.710 
11.888 -7.184 -70.705 
14.277 4.107 -69.731 
14.260 4.080 -69.889 
-11.305 3.907 -63.076 
-11.344 4.105 -63.144 
2.572 7.362 -65.884 
2.474 7.520 -65.930 
6.532 3.241 -62.548 
6.574 3.360 -62.667 
14.459 -6.935 -72.713 
14.542 -6.820 -72.937 
-0.554 -4.703 -62.780 
-0.379 -4.352 -62.813 
1.057 11.607 -76.552 
1.082 11.747 -76.676 
-10.003 -0.993 -68.053 
-10.077 -0.733 -68.023 
8.484 9.142 -68.736 
8.317 9.120 -68.887 
-3.120 10.808 -70.414 
-3.092 10.845 -70.446 
4.075 -1.913 -64.241 
4.212 -1.709 -64.260 
1.366 -12.245 -69.087 
1.520 -12.150 -69.214 
12.938 -2.060 -69.300 
12.933 -2.025 -69.411 
-2.657 9.583 -69.919 
-2.781 9.709 -70.137 
-9.444 2.938 -63.242 
-9.339 3.282 -63.435 
15.109 1.620 -69.825 
15.084 1.745 -69.976 
-8.068 6.402 -65.169 
-8.028 6.532 -65.304 
7.422 -12.336 -67.084 
7.544 -12.299 -67.135 
-4.944 -10.947 -70.165 
-4.846 -10.711 -69.987 
-4.546 2.322 -61.320 
-4.597 2.504 -61.357 
-13.228 -7.821 -66.790 
-13.237 -7.635 -66.744 
4.406 6.444 -63.378 
4.331 6.560 -63.399 
2.948 -8.169 -72.420 
2.884 -8.136 -72.415 
13.250 -8.586 -67.845 
13.283 -8.456 -67.955 
8.385 10.888 -68.302 
8.387 10.853 -68.467 
-13.919 -9.922 -67.707 
-13.880 -9.866 -67.654 
-9.369 6.836 -68.427 
-9.381 6.788 -68.459 
10.301 11.280 -66.132 
10.301 11.285 -66.295 
-6.987 -11.590 -69.780 
-6.984 -11.335 -69.724 
-9.236 -3.015 -72.884 
-9.300 -3.003 -72.917 
2.845 12.178 -65.458 
2.858 12.249 -65.476 
-12.827 -11.006 -69.681 
-12.634 -10.765 -69.458 
2.358 1.588 -73.186 
2.224 1.591 -73.366 
7.713 -1.657 -63.229 
7.809 -1.395 -63.163 
9.813 4.843 -67.996 
9.707 4.954 -68.098 
7.984 12.039 -67.262 
8.102 12.018 -67.398 
-8.889 -7.866 -72.148 
-8.796 -7.708 -71.910 
-4.486 -2.866 -68.735 
-4.494 -2.591 -68.779 
-7.708 -1.815 -62.705 
-7.541 -1.589 -62.728 
-13.179 6.052 -68.601 
-13.256 5.991 -68.579 
11.931 -6.613 -66.719 
12.030 -6.434 -66.810 
3.648 5.242 -65.175 
3.660 5.411 -65.256 
-14.146 -0.755 -67.225 
-14.211 -0.653 -67.150 
12.548 11.622 -66.358 
12.494 11.676 -66.369 
6.542 -6.859 -64.227 
6.699 -6.679 -64.204 
-3.101 8.912 -72.429 
-3.216 9.132 -72.617 
-1.160 -11.394 -74.245 
-1.208 -11.385 -74.146 
-6.233 -2.189 -69.672 
-6.171 -2.087 -69.755 
-10.510 -5.663 -68.724 
-10.385 -5.479 -68.496 
12.557 -1.703 -66.971 
12.648 -1.507 -67.024 
-8.390 -1.677 -65.001 
-8.393 -1.529 -64.966 
5.986 9.706 -71.358 
5.713 9.834 -71.470 
11.657 8.249 -67.166 
11.651 8.235 -67.313 
8.032 -1.837 -69.107 
8.133 -1.718 -69.307 
-6.081 9.413 -65.546 
-6.117 9.661 -65.581 
-11.284 -1.218 -71.243 
-11.284 -1.217 -71.396 
9.738 5.703 -73.925 
9.625 5.712 -74.060 
12.618 -4.662 -71.519 
[...]
POINT_DATA 796 
SCALARS Umean double 1 
LOOKUP_TABLE default
0.08575 
0.08575 
0.12001 
0.12001 
0.09340 
0.09340 
0.11299 
0.11299 
0.04266 
0.04266 
0.10583 
0.10583 
0.08113 
0.08113 
0.09669 
0.09669 
0.07337 
0.07337 
0.07569 
0.07569 
0.08515 
0.08515 
0.10287 
0.10287 
0.07336 
0.07336 
0.04212 
0.04212 
0.08550 
0.08550 
0.06778 
0.06778 
0.09051 
0.09051 
0.09012 
0.09012 
0.06026 
0.06026 
0.15438 
0.15438 
0.09076 
0.09076 
0.07607 
0.07607 
0.02004 
0.02004 
0.08700 
0.08700 
0.05768 
0.05768 
0.02312 
0.02312 
0.10244 
0.10244 
0.07930 
0.07930 
0.14052 
0.14052 
0.09244 
0.09244 
0.06581 
0.06581 
0.10042 
0.10042 
0.13487 
0.13487 
0.07361 
0.07361 
0.15145 
0.15145 
0.08947 
0.08947 
0.08219 
0.08219 
0.11197 
0.11197 
0.05502 
0.05502 
0.10560 
0.10560 
0.06797 
0.06797 
0.08056 
0.08056 
0.05836 
0.05836 
0.11016 
0.11016 
0.09470 
0.09470 
0.09751 
0.09751 
0.08714 
0.08714 
0.12570 
0.12570 
0.05154 
0.05154 
0.12715 
0.12715 
0.05789 
0.05789 
0.03336 
0.03336 
0.13325 
0.13325 
0.10091 
0.10091 
0.09057 
0.09057 
0.07356 
0.07356 
0.09493 
0.09493 
0.04695 
0.04695 
0.15271 
0.15271 
0.07111 
0.07111 
0.13188 
0.13188 
0.16021 
0.16021 
0.11608 
0.11608 
0.05459 
0.05459 
0.11015 
0.11015 
0.08222 
0.08222 
0.13912 
0.13912 
0.09890 
0.09890 
0.08231 
0.08231 
0.07203 
0.07203 
0.15186 
0.15186 
0.14392 
0.14392 
0.14232 
0.14232 
0.11470 
0.11470 
0.16506 
0.16506 
0.16963 
0.16963 
0.09682 
0.09682 
0.07930 
0.07930 
0.10706 
0.10706 
0.17852 
0.17852 
0.16158 
0.16158 
0.13135 
0.13135 
0.12466 
0.12466 
0.08371 
0.08371 
0.05636 
0.05636 
0.15277 
0.15277 
0.11599 
0.11599 
0.08757 
0.08757 
0.06973 
0.06973 
0.13668 
0.13668 
0.11548 
0.11548 
0.08428 
0.08428 
0.11403 
0.11403 
0.04328 
0.04328 
0.12480 
0.12480 
0.14253 
0.14253 
0.07825 
0.07825 
0.09658 
0.09658 
0.03551 
0.03551 
0.08415 
0.08415 
0.07269 
0.07269 
0.09009 
0.09009 
0.05626 
0.05626 
0.10391 
0.10391 
0.14041 
0.14041 
0.09776 
0.09776 
0.05305 
0.05305 
0.14644 
0.14644 
0.13034 
0.13034 
0.14605 
0.14605 
0.15288 
0.15288 
0.12017 
0.12017 
0.04561 
0.04561 
0.04658 
0.04658 
0.09259 
0.09259 
0.19953 
0.19953 
0.09948 
0.09948 
0.08754 
0.08754 
0.09482 
0.09482 
0.10063 
0.10063 
0.13037 
0.13037 
0.14413 
0.14413 
0.07903 
0.07903 
0.06624 
0.06624 
0.12309 
0.12309 
0.07696 
0.07696 
0.08935 
0.08935 
0.08539 
0.08539 
0.14120 
0.14120 
0.07516 
0.07516 
0.06647 
0.06647 
0.05301 
0.05301 
0.08344 
0.08344 
0.14492 
0.14492 
0.12129 
0.12129 
0.16093 
0.16093 
0.13185 
0.13185 
0.02868 
0.02868 
0.04948 
0.04948 
0.03791 
0.03791 
0.19564 
0.19564 
0.08605 
0.08605 
0.02524 
0.02524 
0.19227 
0.19227 
0.08896 
0.08896 
0.11854 
0.11854 
0.11114 
0.11114 
0.11064 
0.11064 
0.12215 
0.12215 
0.01704 
0.01704 
0.08000 
0.08000 
0.12225 
0.12225 
0.10132 
0.10132 
0.13164 
0.13164 
0.17757 
0.17757 
0.12976 
0.12976 
0.07657 
0.07657 
0.07767 
0.07767 
0.09597 
0.09597 
0.13784 
0.13784 
0.06519 
0.06519 
0.18876 
0.18876 
0.04475 
0.04475 
0.08059 
0.08059 
0.10648 
0.10648 
0.09577 
0.09577 
0.08673 
0.08673 
0.13256 
0.13256 
0.19680 
0.19680 
0.09434 
0.09434 
0.13599 
0.13599 
0.11311 
0.11311 
0.02818 
0.02818 
0.12323 
0.12323 
0.11053 
0.11053 
0.05825 
0.05825 
0.14034 
0.14034 
0.20409 
0.20409 
0.09881 
0.09881 
0.09582 
0.09582 
0.06865 
0.06865 
0.15571 
0.15571 
0.09630 
0.09630 
0.09591 
0.09591 
0.06986 
0.06986 
0.03609 
0.03609 
0.08673 
0.08673 
0.08434 
0.08434 
0.04320 
0.04320 
0.02946 
0.02946 
0.08154 
0.08154 
0.13055 
0.13055 
0.03650 
0.03650 
0.03720 
0.03720 
0.19043 
0.19043 
0.11221 
0.11221 
0.14337 
0.14337 
0.09214 
0.09214 
0.09064 
0.09064 
0.15021 
0.15021 
0.13931 
0.13931 
0.14097 
0.14097 
0.05033 
0.05033 
0.11194 
0.11194 
0.09390 
0.09390 
0.07116 
0.07116 
0.03858 
0.03858 
0.11998 
0.11998 
0.15570 
0.15570 
0.05520 
0.05520 
0.07269 
0.07269 
0.15927 
0.15927 
0.11125 
0.11125 
0.07606 
0.07606 
0.16082 
0.16082 
0.07389 
0.07389 
0.12685 
0.12685 
0.12652 
0.12652 
0.07650 
0.07650 
0.08814 
0.08814 
0.02618 
0.02618 
0.04805 
0.04805 
0.11150 
0.11150 
0.06725 
0.06725 
0.02241 
0.02241 
0.12709 
0.12709 
0.02164 
0.02164 
0.08132 
0.08132 
0.05390 
0.05390 
0.04805 
0.04805 
0.12801 
0.12801 
0.11304 
0.11304 
0.04670 
0.04670 
0.11300 
0.11300 
0.08154 
0.08154 
0.14395 
0.14395 
0.07944 
0.07944 
0.11341 
0.11341 
0.09044 
0.09044 
0.15384 
0.15384 
0.10472 
0.10472 
0.06118 
0.06118 
0.09191 
0.09191 
0.11972 
0.11972 
0.03280 
0.03280 
0.18010 
0.18010 
0.13235 
0.13235 
0.04860 
0.04860 
0.10372 
0.10372 
0.10789 
0.10789 
0.11900 
0.11900 
0.07897 
0.07897 
0.16125 
0.16125 
0.08993 
0.08993 
0.10787 
0.10787 
0.16809 
0.16809 
0.16287 
0.16287 
0.08976 
0.08976 
0.05384 
0.05384 
0.11207 
0.11207 
0.09159 
0.09159 
0.13859 
0.13859 
0.06714 
0.06714 
0.08393 
0.08393 
0.01608 
0.01608 
0.12745 
0.12745 
0.09887 
0.09887 
0.21276 
0.21276 
0.06970 
0.06970 
0.11003 
0.11003 
0.13260 
0.13260 
0.05066 
0.05066 
0.10385 
0.10385 
0.18178 
0.18178 
0.05048 
0.05048 
0.09826 
0.09826 
0.10112 
0.10112 
0.12268 
0.12268 
0.15159 
0.15159 
0.07712 
0.07712 
0.13414 
0.13414 
0.14686 
0.14686 
0.14273 
0.14273 
0.09330 
0.09330 
0.04541 
0.04541 
0.26269 
0.26269 
0.17521 
0.17521 
0.09202 
0.09202 
0.10159 
0.10159 
0.12708 
0.12708 
0.19412 
0.19412 
0.14278 
0.14278 
0.05001 
0.05001 
0.10395 
0.10395 
0.06071 
0.06071 
0.11349 
0.11349 
0.07179 
0.07179 
0.12608 
0.12608 
0.03275 
0.03275 
0.08279 
0.08279 
0.07903 
0.07903 
0.05285 
0.05285 
0.09098 
0.09098 
0.13417 
0.13417 
0.05394 
0.05394 
0.05812 
0.05812 
0.08649 
0.08649 
0.06827 
0.06827 
0.09387 
0.09387 
0.05181 
0.05181 
0.12572 
0.12572 
0.20916 
0.20916 
0.15492 
0.15492 
0.10296 
0.10296 
0.07890 
0.07890 
0.04840 
0.04840 
0.06793 
0.06793 
0.06285 
0.06285 
0.07265 
0.07265 
0.09233 
0.09233 
0.10068 
0.10068 
0.10047 
0.10047 
0.13433 
0.13433 
0.10729 
0.10729 
0.07384 
0.07384 
0.09035 
0.09035 
0.06162 
0.06162 
0.14962 
0.14962 
0.06005 
0.06005 
0.05069 
0.05069 
0.06855 
0.06855 
0.09107 
0.09107 
0.12709 
0.12709 
0.04707 
0.04707 
0.05983 
0.05983 
0.12009 
0.12009 
0.10577 
0.10577 
0.15386 
0.15386 
0.11355 
0.11355 
0.12503 
0.12503 
0.07721 
0.07721 
0.13399 
0.13399 
0.10727 
0.10727 
0.07373 
0.07373 
0.08928 
0.08928 
0.07996 
0.07996 
0.06685 
0.06685 
0.08028 
0.08028 
0.05976 
0.05976 
0.05572 
0.05572 
0.05165 
0.05165 
0.05776 
0.05776 
0.06758 
0.06758 
0.23597 
0.23597 
0.16771 
0.16771 
0.02299 
0.02299 
0.13363 
0.13363 
0.08119 
0.08119 
0.05035 
0.05035 
0.07537 
0.07537 
0.05618 
0.05618 
0.06061 
0.06061 
0.26074 
0.26074 
0.15158 
0.15158 
0.09046 
0.09046 
0.09063 
0.09063 
0.02555 
0.02555 
0.03282 
0.03282 
0.11991 
0.11991 
0.16557 
0.16557 
0.13160 
0.13160 
0.08999 
0.08999 
0.10244 
0.10244 
0.04605 
0.04605 
0.12398 
0.12398 
0.03715 
0.03715 
0.11668 
0.11668 
0.07819 
0.07819 
0.12562 
0.12562 
0.05074 
0.05074 
0.12297 
0.12297 
0.06754 
0.06754 
0.07396 
0.07396 
0.16264 
0.16264 
0.08249 
0.08249 
0.06366 
0.06366 
0.23115 
0.23115 
0.08580 
0.08580 
0.11252 
0.11252 
0.06293 
0.06293 
0.10631 
0.10631 
0.10999 
0.10999 
0.12203 
0.12203 
0.06186 
0.06186 
0.06336 
0.06336 
0.08294 
0.08294 
0.12107 
0.12107 
0.09451 
0.09451 
SCALARS Umean_X double 1 
LOOKUP_TABLE default
0.03100 
0.03100 
-0.04300 
-0.04300 
-0.03900 
-0.03900 
-0.05750 
-0.05750 
-0.03350 
-0.03350 
0.02250 
0.02250 
-0.02300 
-0.02300 
0.01200 
0.01200 
-0.01250 
-0.01250 
-0.01800 
-0.01800 
-0.00450 
-0.00450 
0.04000 
0.04000 
-0.05150 
-0.05150 
-0.03400 
-0.03400 
-0.00500 
-0.00500 
-0.04200 
-0.04200 
0.01250 
0.01250 
-0.03100 
-0.03100 
-0.00500 
-0.00500 
-0.05650 
-0.05650 
-0.02350 
-0.02350 
-0.01750 
-0.01750 
-0.00450 
-0.00450 
0.02900 
0.02900 
-0.02350 
-0.02350 
-0.02250 
-0.02250 
0.00700 
0.00700 
0.06150 
0.06150 
-0.08950 
-0.08950 
-0.07400 
-0.07400 
-0.06500 
-0.06500 
-0.04000 
-0.04000 
0.00200 
0.00200 
0.00900 
0.00900 
0.01200 
0.01200 
-0.00050 
-0.00050 
0.02800 
0.02800 
-0.02750 
-0.02750 
-0.00550 
-0.00550 
-0.03050 
-0.03050 
0.01850 
0.01850 
0.00700 
0.00700 
-0.00600 
-0.00600 
0.03700 
0.03700 
0.05850 
0.05850 
0.02250 
0.02250 
-0.04800 
-0.04800 
0.02850 
0.02850 
0.03200 
0.03200 
-0.00350 
-0.00350 
-0.04850 
-0.04850 
-0.02550 
-0.02550 
-0.00700 
-0.00700 
-0.06050 
-0.06050 
-0.01100 
-0.01100 
0.00050 
0.00050 
-0.01250 
-0.01250 
-0.02150 
-0.02150 
0.02700 
0.02700 
0.00250 
0.00250 
-0.00900 
-0.00900 
0.02100 
0.02100 
-0.08750 
-0.08750 
0.01000 
0.01000 
-0.00450 
-0.00450 
0.00550 
0.00550 
-0.00200 
-0.00200 
0.07250 
0.07250 
-0.00900 
-0.00900 
0.01000 
0.01000 
0.06050 
0.06050 
0.04150 
0.04150 
0.00400 
0.00400 
-0.01000 
-0.01000 
0.01900 
0.01900 
0.05550 
0.05550 
0.01800 
0.01800 
0.02350 
0.02350 
0.03400 
0.03400 
0.01900 
0.01900 
0.07850 
0.07850 
0.00750 
0.00750 
0.02450 
0.02450 
0.05500 
0.05500 
-0.01700 
-0.01700 
0.05750 
0.05750 
0.00650 
0.00650 
-0.06000 
-0.06000 
0.03400 
0.03400 
0.05550 
0.05550 
-0.01850 
-0.01850 
0.00800 
0.00800 
0.01900 
0.01900 
-0.04300 
-0.04300 
-0.08550 
-0.08550 
0.00500 
0.00500 
0.02750 
0.02750 
-0.00300 
-0.00300 
-0.00400 
-0.00400 
-0.04250 
-0.04250 
0.01000 
0.01000 
-0.07200 
-0.07200 
0.03250 
0.03250 
-0.07700 
-0.07700 
0.02150 
0.02150 
0.03550 
0.03550 
-0.00900 
-0.00900 
0.04650 
0.04650 
-0.12450 
-0.12450 
0.02900 
0.02900 
0.07850 
0.07850 
0.01700 
0.01700 
-0.00050 
-0.00050 
-0.01450 
-0.01450 
0.06050 
0.06050 
0.04800 
0.04800 
0.03100 
0.03100 
-0.04250 
-0.04250 
0.05750 
0.05750 
-0.09000 
-0.09000 
-0.01200 
-0.01200 
-0.11100 
-0.11100 
-0.03900 
-0.03900 
-0.04400 
-0.04400 
0.02000 
0.02000 
0.04900 
0.04900 
0.02650 
0.02650 
-0.03650 
-0.03650 
0.05450 
0.05450 
0.05250 
0.05250 
-0.03500 
-0.03500 
0.03300 
0.03300 
-0.01200 
-0.01200 
-0.03500 
-0.03500 
-0.04550 
-0.04550 
0.09500 
0.09500 
-0.00950 
-0.00950 
0.02350 
0.02350 
-0.03800 
-0.03800 
-0.03300 
-0.03300 
0.10100 
0.10100 
0.07600 
0.07600 
-0.00200 
-0.00200 
0.02650 
0.02650 
-0.03650 
-0.03650 
-0.03650 
-0.03650 
0.04150 
0.04150 
-0.06350 
-0.06350 
-0.10950 
-0.10950 
-0.00800 
-0.00800 
-0.05850 
-0.05850 
0.04450 
0.04450 
-0.09350 
-0.09350 
-0.01750 
-0.01750 
0.06500 
0.06500 
0.03000 
0.03000 
0.04650 
0.04650 
0.01650 
0.01650 
0.00950 
0.00950 
0.12050 
0.12050 
-0.02500 
-0.02500 
0.10250 
0.10250 
0.04450 
0.04450 
-0.00850 
-0.00850 
-0.01950 
-0.01950 
-0.04900 
-0.04900 
0.02100 
0.02100 
0.04150 
0.04150 
0.08750 
0.08750 
0.01250 
0.01250 
-0.03700 
-0.03700 
-0.08350 
-0.08350 
0.01400 
0.01400 
0.06850 
0.06850 
0.07700 
0.07700 
-0.00250 
-0.00250 
-0.06200 
-0.06200 
0.05250 
0.05250 
-0.01250 
-0.01250 
0.02000 
0.02000 
0.06100 
0.06100 
0.04900 
0.04900 
-0.02550 
-0.02550 
-0.00450 
-0.00450 
-0.03750 
-0.03750 
-0.03200 
-0.03200 
0.01650 
0.01650 
0.00100 
0.00100 
0.01950 
0.01950 
-0.00600 
-0.00600 
-0.00000 
-0.00000 
0.00150 
0.00150 
-0.03200 
-0.03200 
0.00650 
0.00650 
0.09650 
0.09650 
-0.06700 
-0.06700 
0.04800 
0.04800 
-0.05300 
-0.05300 
0.05900 
0.05900 
0.04650 
0.04650 
-0.00400 
-0.00400 
0.08350 
0.08350 
-0.03850 
-0.03850 
0.04950 
0.04950 
0.00600 
0.00600 
-0.03250 
-0.03250 
-0.02700 
-0.02700 
0.07850 
0.07850 
-0.05750 
-0.05750 
-0.02400 
-0.02400 
0.03100 
0.03100 
0.06250 
0.06250 
0.04550 
0.04550 
-0.00150 
-0.00150 
-0.13650 
-0.13650 
-0.00300 
-0.00300 
0.05050 
0.05050 
-0.01800 
-0.01800 
-0.00000 
-0.00000 
-0.05650 
-0.05650 
0.01600 
0.01600 
-0.03800 
-0.03800 
-0.06700 
-0.06700 
0.00350 
0.00350 
-0.00600 
-0.00600 
-0.06150 
-0.06150 
-0.00900 
-0.00900 
-0.01100 
-0.01100 
0.03900 
0.03900 
0.04350 
0.04350 
-0.04150 
-0.04150 
0.02500 
0.02500 
-0.00800 
-0.00800 
-0.01650 
-0.01650 
-0.01200 
-0.01200 
0.04500 
0.04500 
-0.01450 
-0.01450 
-0.01850 
-0.01850 
-0.07100 
-0.07100 
-0.13900 
-0.13900 
0.04400 
0.04400 
0.00150 
0.00150 
0.03550 
0.03550 
-0.01600 
-0.01600 
-0.00400 
-0.00400 
0.06500 
0.06500 
0.08250 
0.08250 
0.01050 
0.01050 
0.05300 
0.05300 
0.01900 
0.01900 
-0.04600 
-0.04600 
-0.04050 
-0.04050 
0.08050 
0.08050 
-0.00450 
-0.00450 
0.07900 
0.07900 
0.11600 
0.11600 
0.03550 
0.03550 
-0.01150 
-0.01150 
0.00250 
0.00250 
0.00150 
0.00150 
0.07100 
0.07100 
-0.00000 
-0.00000 
-0.01400 
-0.01400 
-0.03450 
-0.03450 
0.01000 
0.01000 
-0.04850 
-0.04850 
-0.02750 
-0.02750 
0.07800 
0.07800 
-0.03150 
-0.03150 
0.07500 
0.07500 
-0.03550 
-0.03550 
0.00400 
0.00400 
-0.06900 
-0.06900 
0.02650 
0.02650 
-0.04600 
-0.04600 
-0.07200 
-0.07200 
0.03800 
0.03800 
-0.08100 
-0.08100 
-0.04050 
-0.04050 
-0.04200 
-0.04200 
0.02000 
0.02000 
0.05650 
0.05650 
0.00550 
0.00550 
0.02550 
0.02550 
-0.01550 
-0.01550 
0.05100 
0.05100 
0.10400 
0.10400 
0.05750 
0.05750 
-0.08600 
-0.08600 
0.05300 
0.05300 
0.07450 
0.07450 
0.06150 
0.06150 
0.00050 
0.00050 
0.06050 
0.06050 
0.01300 
0.01300 
0.05000 
0.05000 
0.01650 
0.01650 
-0.03450 
-0.03450 
-0.03250 
-0.03250 
-0.00250 
-0.00250 
0.00450 
0.00450 
0.03100 
0.03100 
0.04350 
0.04350 
0.04450 
0.04450 
-0.01750 
-0.01750 
0.04150 
0.04150 
-0.05350 
-0.05350 
-0.01450 
-0.01450 
0.00850 
0.00850 
0.00650 
0.00650 
0.05050 
0.05050 
0.01550 
0.01550 
0.05800 
0.05800 
0.08100 
0.08100 
0.00200 
0.00200 
-0.04200 
-0.04200 
0.04650 
0.04650 
-0.02950 
-0.02950 
0.03550 
0.03550 
0.08200 
0.08200 
-0.03900 
-0.03900 
-0.09350 
-0.09350 
0.00250 
0.00250 
0.09450 
0.09450 
0.00050 
0.00050 
-0.00150 
-0.00150 
0.01550 
0.01550 
-0.02000 
-0.02000 
-0.03800 
-0.03800 
0.02150 
0.02150 
0.04300 
0.04300 
0.00050 
0.00050 
-0.04150 
-0.04150 
-0.00200 
-0.00200 
0.04500 
0.04500 
0.06500 
0.06500 
0.02850 
0.02850 
0.07900 
0.07900 
-0.00000 
-0.00000 
0.05050 
0.05050 
-0.03350 
-0.03350 
-0.02300 
-0.02300 
-0.08200 
-0.08200 
-0.02550 
-0.02550 
0.04950 
0.04950 
-0.02900 
-0.02900 
0.00500 
0.00500 
0.02050 
0.02050 
-0.02050 
-0.02050 
-0.01300 
-0.01300 
-0.02150 
-0.02150 
-0.03150 
-0.03150 
-0.03550 
-0.03550 
0.20250 
0.20250 
0.07100 
0.07100 
0.00850 
0.00850 
-0.09200 
-0.09200 
-0.04100 
-0.04100 
0.04900 
0.04900 
0.05800 
0.05800 
-0.02150 
-0.02150 
0.05700 
0.05700 
0.09650 
0.09650 
0.00400 
0.00400 
-0.02800 
-0.02800 
0.06500 
0.06500 
0.02200 
0.02200 
-0.02100 
-0.02100 
0.04600 
0.04600 
0.05200 
0.05200 
-0.02700 
-0.02700 
-0.02400 
-0.02400 
-0.01150 
-0.01150 
-0.02450 
-0.02450 
-0.02500 
-0.02500 
0.01800 
0.01800 
-0.08550 
-0.08550 
-0.02550 
-0.02550 
0.05650 
0.05650 
-0.03550 
-0.03550 
0.07000 
0.07000 
-0.04300 
-0.04300 
-0.01000 
-0.01000 
-0.09100 
-0.09100 
0.03150 
0.03150 
-0.03450 
-0.03450 
0.05350 
0.05350 
0.06800 
0.06800 
0.04300 
0.04300 
0.02750 
0.02750 
-0.05750 
-0.05750 
0.02750 
0.02750 
0.08550 
0.08550 
-0.04250 
-0.04250 
-0.03450 
-0.03450 
0.06950 
0.06950 
-0.00150 
-0.00150 
0.05250 
0.05250 
SCALARS Umean_Y double 1 
LOOKUP_TABLE default
0.05450 
0.05450 
0.05150 
0.05150 
0.05900 
0.05900 
0.04350 
0.04350 
0.02500 
0.02500 
-0.04200 
-0.04200 
0.06200 
0.06200 
0.04450 
0.04450 
0.03800 
0.03800 
-0.00150 
-0.00150 
0.02250 
0.02250 
0.06850 
0.06850 
0.00500 
0.00500 
0.02400 
0.02400 
0.07850 
0.07850 
-0.01950 
-0.01950 
0.07000 
0.07000 
-0.02900 
-0.02900 
0.04950 
0.04950 
0.07900 
0.07900 
0.08200 
0.08200 
0.07400 
0.07400 
0.01250 
0.01250 
0.05750 
0.05750 
0.01500 
0.01500 
-0.00400 
-0.00400 
0.06100 
0.06100 
-0.00250 
-0.00250 
0.03200 
0.03200 
0.04750 
0.04750 
0.00500 
0.00500 
0.04900 
0.04900 
0.11950 
0.11950 
0.03700 
0.03700 
0.13650 
0.13650 
0.03800 
0.03800 
0.06700 
0.06700 
0.04100 
0.04100 
0.04250 
0.04250 
0.10100 
0.10100 
0.04650 
0.04650 
0.05650 
0.05650 
0.01100 
0.01100 
0.09350 
0.09350 
0.06700 
0.06700 
0.08950 
0.08950 
0.06900 
0.06900 
0.12150 
0.12150 
-0.00850 
-0.00850 
0.12500 
0.12500 
0.00250 
0.00250 
-0.01750 
-0.01750 
0.05750 
0.05750 
0.07100 
0.07100 
0.03900 
0.03900 
0.04650 
0.04650 
0.07600 
0.07600 
0.02350 
0.02350 
0.14950 
0.14950 
0.05000 
0.05000 
0.12150 
0.12150 
0.14900 
0.14900 
0.07600 
0.07600 
0.03000 
0.03000 
0.10400 
0.10400 
-0.01300 
-0.01300 
0.13450 
0.13450 
0.06700 
0.06700 
0.07650 
0.07650 
0.06350 
0.06350 
0.13000 
0.13000 
0.13450 
0.13450 
0.13850 
0.13850 
0.10250 
0.10250 
0.03350 
0.03350 
0.15800 
0.15800 
0.00500 
0.00500 
0.04050 
0.04050 
0.08400 
0.08400 
0.15500 
0.15500 
0.05400 
0.05400 
0.12800 
0.12800 
0.11550 
0.11550 
0.05750 
0.05750 
-0.00500 
-0.00500 
0.13500 
0.13500 
0.08650 
0.08650 
0.05950 
0.05950 
0.05900 
0.05900 
0.12400 
0.12400 
0.09900 
0.09900 
0.06950 
0.06950 
0.11150 
0.11150 
0.00450 
0.00450 
0.07000 
0.07000 
0.12750 
0.12750 
0.07250 
0.07250 
0.06700 
0.06700 
0.03300 
0.03300 
0.04800 
0.04800 
0.07200 
0.07200 
0.05400 
0.05400 
-0.02650 
-0.02650 
0.03100 
0.03100 
0.11800 
0.11800 
0.08450 
0.08450 
0.01150 
0.01150 
0.12750 
0.12750 
-0.00900 
-0.00900 
0.12400 
0.12400 
0.09100 
0.09100 
0.11700 
0.11700 
0.02800 
0.02800 
0.01050 
0.01050 
0.05200 
0.05200 
0.11200 
0.11200 
0.09400 
0.09400 
-0.00200 
-0.00200 
0.07000 
0.07000 
0.00950 
0.00950 
0.11350 
0.11350 
0.04350 
0.04350 
0.02750 
0.02750 
-0.01700 
-0.01700 
0.09050 
0.09050 
0.05150 
0.05150 
0.06950 
0.06950 
0.06200 
0.06200 
0.08750 
0.08750 
0.05350 
0.05350 
0.02900 
0.02900 
0.04000 
0.04000 
-0.02850 
-0.02850 
-0.14050 
-0.14050 
0.08000 
0.08000 
0.12550 
0.12550 
0.13100 
0.13100 
0.00550 
0.00550 
-0.00350 
-0.00350 
0.01750 
0.01750 
0.14350 
0.14350 
0.03350 
0.03350 
-0.02350 
-0.02350 
0.18650 
0.18650 
-0.00450 
-0.00450 
0.02700 
0.02700 
0.10300 
0.10300 
-0.01700 
-0.01700 
0.02300 
0.02300 
-0.00400 
-0.00400 
-0.03600 
-0.03600 
0.01400 
0.01400 
0.03850 
0.03850 
0.11900 
0.11900 
0.15600 
0.15600 
0.12100 
0.12100 
0.05400 
0.05400 
0.07450 
0.07450 
0.00050 
0.00050 
0.04150 
0.04150 
-0.04000 
-0.04000 
0.15400 
0.15400 
0.00400 
0.00400 
-0.01350 
-0.01350 
0.09900 
0.09900 
0.07900 
0.07900 
0.05950 
0.05950 
0.05750 
0.05750 
0.17550 
0.17550 
0.07000 
0.07000 
0.13000 
0.13000 
-0.01100 
-0.01100 
0.01850 
0.01850 
0.10200 
0.10200 
0.04750 
0.04750 
0.01750 
0.01750 
0.06300 
0.06300 
0.17200 
0.17200 
0.06250 
0.06250 
0.06500 
0.06500 
0.01850 
0.01850 
0.11800 
0.11800 
0.09100 
0.09100 
0.09300 
0.09300 
0.05800 
0.05800 
0.01650 
0.01650 
0.06500 
0.06500 
-0.01750 
-0.01750 
0.02800 
0.02800 
-0.02400 
-0.02400 
0.00250 
0.00250 
0.12750 
0.12750 
0.00600 
0.00600 
0.03550 
0.03550 
0.12050 
0.12050 
0.00150 
0.00150 
0.13100 
0.13100 
0.05550 
0.05550 
-0.01050 
-0.01050 
0.07900 
0.07900 
0.13750 
0.13750 
0.11300 
0.11300 
-0.03050 
-0.03050 
0.08950 
0.08950 
0.08450 
0.08450 
0.05100 
0.05100 
0.02700 
0.02700 
0.09000 
0.09000 
0.11000 
0.11000 
0.00450 
0.00450 
0.05100 
0.05100 
0.09200 
0.09200 
0.09800 
0.09800 
0.07400 
0.07400 
0.06400 
0.06400 
-0.00700 
-0.00700 
0.05950 
0.05950 
0.12400 
0.12400 
0.00050 
0.00050 
0.00450 
0.00450 
0.02050 
0.02050 
0.02500 
0.02500 
0.07750 
0.07750 
0.05200 
0.05200 
-0.01600 
-0.01600 
0.06250 
0.06250 
0.00900 
0.00900 
0.00350 
0.00350 
0.03000 
0.03000 
0.01200 
0.01200 
0.09700 
0.09700 
0.10900 
0.10900 
0.01500 
0.01500 
-0.02250 
-0.02250 
0.07700 
0.07700 
0.13650 
0.13650 
0.05000 
0.05000 
0.10350 
0.10350 
0.05600 
0.05600 
0.02100 
0.02100 
0.07450 
0.07450 
0.03450 
0.03450 
0.08250 
0.08250 
0.05800 
0.05800 
0.00600 
0.00600 
0.16300 
0.16300 
0.10200 
0.10200 
-0.04700 
-0.04700 
0.01950 
0.01950 
0.10400 
0.10400 
-0.07350 
-0.07350 
0.05950 
0.05950 
0.12800 
0.12800 
0.00750 
0.00750 
0.07200 
0.07200 
0.12100 
0.12100 
0.15850 
0.15850 
0.02800 
0.02800 
0.01850 
0.01850 
0.10150 
0.10150 
0.01250 
0.01250 
0.13650 
0.13650 
0.06150 
0.06150 
0.07100 
0.07100 
0.01250 
0.01250 
0.04100 
0.04100 
0.02150 
0.02150 
0.18150 
0.18150 
0.05500 
0.05500 
0.06350 
0.06350 
0.04650 
0.04650 
0.04950 
0.04950 
0.05850 
0.05850 
0.17650 
0.17650 
0.00950 
0.00950 
0.04550 
0.04550 
0.05750 
0.05750 
0.04000 
0.04000 
0.13450 
0.13450 
0.02150 
0.02150 
-0.00600 
-0.00600 