# vtk DataFile Version 2.1 
Trajects from timestep 84 with color option 
ASCII 
 
DATASET POLYDATA POINTS 1024 float 
0.731 8.218 -66.599 
0.779 8.592 -66.482 
-7.391 -1.648 -70.696 
-7.338 -1.512 -70.641 
3.340 6.069 -71.329 
3.270 6.361 -71.410 
1.140 8.663 -71.550 
0.923 8.851 -71.583 
4.680 5.633 -68.700 
4.736 5.896 -68.817 
3.212 8.513 -70.378 
3.269 8.795 -70.443 
-5.580 7.393 -71.486 
-5.523 7.533 -71.449 
-5.705 8.259 -69.116 
-5.686 8.452 -69.074 
2.117 4.128 -69.461 
2.107 4.527 -69.487 
3.583 0.077 -69.777 
3.597 0.346 -69.878 
-7.633 8.348 -67.018 
-7.406 8.568 -67.001 
-0.049 5.533 -66.842 
-0.007 5.789 -66.711 
1.900 5.561 -70.930 
1.850 5.882 -70.987 
3.866 8.317 -66.318 
3.938 8.583 -66.441 
-5.105 0.613 -70.000 
-5.091 0.894 -70.024 
-4.659 -7.842 -71.337 
-4.633 -7.577 -71.287 
0.579 1.811 -65.704 
0.676 2.120 -65.820 
-1.302 6.357 -68.983 
-1.236 6.518 -68.920 
-1.407 1.608 -75.280 
-1.321 1.699 -75.319 
1.204 -3.454 -71.944 
1.197 -3.232 -72.028 
6.806 2.460 -69.170 
6.804 2.669 -69.346 
-1.201 -11.191 -71.511 
-1.106 -11.011 -71.569 
-4.969 1.245 -70.249 
-4.906 1.511 -70.325 
7.716 3.100 -69.284 
7.735 3.324 -69.489 
-4.317 5.996 -69.523 
-4.112 6.137 -69.464 
-10.448 -10.393 -68.422 
-10.554 -10.121 -68.568 
-6.871 5.873 -67.247 
-6.757 6.078 -67.183 
-2.389 6.492 -74.859 
-2.341 6.613 -74.942 
-8.083 3.988 -68.890 
-7.927 4.071 -68.764 
2.244 -2.200 -73.935 
2.221 -2.003 -73.898 
-1.546 2.195 -67.288 
-1.470 2.442 -67.182 
5.593 10.553 -65.627 
5.686 10.782 -65.551 
-9.945 -2.368 -71.986 
-9.933 -2.137 -71.917 
6.258 -6.412 -68.458 
6.444 -6.313 -68.450 
4.754 3.374 -68.941 
4.796 3.601 -69.088 
-1.948 6.712 -62.702 
-1.843 7.021 -62.553 
-9.953 -6.809 -67.588 
-10.100 -6.456 -67.707 
6.801 -10.944 -73.283 
6.985 -10.879 -73.491 
4.208 11.255 -68.241 
4.137 11.476 -68.288 
7.285 -2.306 -67.835 
7.442 -2.103 -68.134 
7.400 11.011 -67.849 
7.311 11.075 -67.815 
-6.857 3.257 -71.110 
-6.768 3.344 -71.078 
-7.921 0.613 -66.407 
-7.795 0.818 -66.452 
-3.888 5.190 -73.417 
-3.764 5.303 -73.425 
-7.677 -5.664 -71.006 
-7.587 -5.343 -71.083 
6.843 7.313 -67.372 
6.850 7.446 -67.529 
-3.444 12.195 -71.723 
-3.581 12.373 -71.734 
-12.705 1.027 -70.857 
-12.693 1.171 -70.799 
1.758 8.929 -71.797 
1.654 9.135 -71.828 
3.758 -3.850 -68.565 
3.918 -3.620 -68.848 
-15.518 1.128 -71.554 
-15.326 0.984 -71.557 
-1.193 -6.318 -71.187 
-1.040 -6.152 -71.357 
-2.581 8.374 -67.322 
-2.501 8.625 -67.313 
-1.388 2.271 -69.465 
-1.279 2.533 -69.320 
10.597 5.773 -67.385 
10.635 5.857 -67.512 
8.483 -7.506 -67.201 
8.784 -7.585 -67.266 
-8.135 10.527 -64.251 
-8.116 10.778 -64.257 
-0.099 11.668 -64.176 
0.023 11.868 -64.229 
0.890 -11.026 -71.820 
1.064 -10.854 -72.076 
-12.287 8.309 -70.569 
-12.148 8.360 -70.589 
-11.191 10.906 -71.009 
-11.040 11.016 -71.000 
-11.448 -7.572 -72.507 
-11.319 -7.392 -72.680 
-6.945 4.255 -64.700 
-6.956 4.666 -64.449 
1.174 -4.265 -64.769 
1.310 -4.111 -64.970 
-0.595 6.499 -63.897 
-0.403 6.882 -63.747 
2.362 -4.733 -65.516 
2.471 -4.606 -65.780 
4.084 10.494 -67.137 
4.095 10.703 -67.176 
2.361 7.820 -70.516 
2.469 8.152 -70.442 
-10.916 2.995 -72.386 
-10.852 3.128 -72.446 
-6.629 -4.362 -67.963 
-6.444 -4.277 -68.051 
-3.360 4.461 -66.680 
-3.215 4.715 -66.617 
-13.593 -2.743 -65.876 
-13.572 -2.598 -66.008 
-1.449 -3.176 -67.746 
-1.290 -2.957 -67.789 
10.955 -2.460 -73.190 
10.944 -2.393 -73.249 
1.081 3.764 -70.689 
1.091 3.965 -70.584 
2.072 10.061 -67.763 
2.183 10.323 -67.902 
12.331 7.108 -68.121 
12.385 7.167 -68.145 
5.899 -0.794 -72.722 
5.910 -0.568 -72.889 
-3.818 6.196 -66.296 
-3.733 6.385 -66.280 
-7.951 -5.900 -63.791 
-7.864 -5.607 -63.873 
2.414 6.014 -65.682 
2.515 6.317 -65.663 
8.559 -4.302 -69.469 
8.679 -4.167 -69.676 
4.878 6.768 -67.863 
4.995 6.982 -67.896 
-3.954 7.941 -71.725 
-3.931 8.025 -71.805 
10.010 -3.065 -67.357 
10.086 -2.998 -67.447 
3.059 -9.792 -73.533 
3.354 -9.671 -73.614 
-3.263 -6.911 -62.395 
-3.174 -6.774 -62.481 
1.836 3.303 -63.781 
1.903 3.591 -63.766 
-6.490 -1.691 -68.051 
-6.443 -1.487 -68.103 
-12.824 5.453 -66.825 
-12.785 5.804 -66.694 
4.439 5.680 -64.026 
4.642 5.937 -64.278 
-8.425 -7.073 -70.540 
-8.298 -6.770 -70.669 
-4.421 2.679 -61.439 
-4.322 2.829 -61.209 
3.982 -11.042 -70.092 
4.247 -10.923 -70.370 
10.121 0.184 -68.270 
10.218 0.334 -68.462 
4.407 -1.853 -66.214 
4.597 -1.604 -66.405 
-11.207 -6.815 -71.803 
-11.087 -6.549 -71.931 
-9.204 -6.679 -68.025 
-9.246 -6.437 -68.123 
6.406 -9.369 -67.431 
6.607 -9.076 -67.537 
-1.084 0.911 -69.230 
-1.013 1.098 -69.058 
-0.491 -0.209 -69.999 
-0.497 0.029 -69.944 
-5.525 6.764 -70.751 
-5.225 6.936 -70.863 
-9.695 -2.361 -64.128 
-9.588 -2.190 -64.333 
-10.160 8.426 -65.724 
-10.004 8.648 -65.648 
-15.241 5.996 -70.428 
-15.192 6.000 -70.444 
-1.078 1.727 -64.123 
-0.887 1.879 -64.136 
6.647 9.242 -66.721 
6.719 9.452 -66.728 
1.960 -3.501 -71.799 
2.011 -3.250 -71.916 
-5.918 3.161 -61.552 
-5.913 3.307 -61.469 
-6.122 -0.355 -62.832 
-6.094 -0.197 -62.946 
-0.704 -8.025 -65.517 
-0.616 -7.851 -65.493 
0.706 -5.036 -65.290 
0.878 -4.830 -65.429 
-1.889 11.846 -66.504 
-1.879 12.219 -66.561 
2.396 -5.140 -63.062 
2.476 -4.951 -63.316 
2.316 -8.384 -69.926 
2.432 -8.288 -70.109 
2.789 8.557 -61.697 
2.869 8.890 -61.707 
-9.045 2.042 -62.932 
-9.153 2.214 -63.116 
-7.491 1.724 -65.562 
-7.357 1.971 -65.565 
-3.657 -3.739 -69.873 
-3.475 -3.491 -69.952 
-9.720 11.725 -63.933 
-9.628 11.864 -63.971 
-1.117 -6.290 -69.634 
-0.936 -6.029 -69.796 
-1.983 -12.250 -66.677 
-1.809 -12.101 -66.884 
-2.668 -1.049 -62.196 
-2.569 -0.915 -62.335 
10.959 6.382 -68.243 
10.994 6.333 -68.302 
-12.595 7.969 -66.412 
-12.538 8.045 -66.376 
5.592 9.257 -72.070 
5.502 9.317 -72.187 
-6.107 10.983 -64.056 
-6.172 11.166 -64.012 
-10.018 -3.520 -67.042 
-9.864 -3.374 -67.208 
-14.049 9.464 -72.504 
-14.021 9.589 -72.533 
5.760 5.329 -64.181 
5.935 5.655 -64.274 
-2.091 11.150 -66.281 
-2.028 11.512 -66.359 
-15.582 8.303 -74.518 
-15.607 8.376 -74.610 
-9.387 3.883 -72.047 
-9.301 3.924 -72.092 
5.239 1.931 -68.550 
5.228 2.190 -68.810 
12.009 -5.556 -70.659 
12.061 -5.473 -70.601 
15.181 11.893 -73.957 
15.105 12.004 -74.150 
10.587 -11.145 -67.919 
10.756 -11.013 -67.712 
7.115 -5.838 -64.707 
7.202 -5.705 -64.710 
-9.704 10.987 -65.994 
-9.681 11.103 -66.011 
-4.809 10.970 -64.280 
-4.764 11.187 -64.422 
-0.103 -4.020 -64.006 
0.036 -3.782 -64.036 
-3.329 -3.027 -62.546 
-3.222 -2.902 -62.664 
8.228 -0.510 -73.897 
8.185 -0.361 -73.962 
-3.366 -6.395 -70.355 
-3.115 -6.177 -70.397 
1.961 -2.977 -63.714 
2.081 -2.773 -63.927 
-5.515 -11.901 -61.654 
-5.286 -11.931 -61.939 
1.730 -7.201 -66.084 
1.791 -6.998 -66.377 
-11.538 -1.764 -66.351 
-11.455 -1.552 -66.424 
9.551 8.377 -68.140 
9.640 8.485 -68.131 
-11.158 1.443 -64.632 
-11.219 1.642 -64.875 
15.310 1.493 -72.221 
15.423 1.509 -72.322 
-13.307 -0.473 -67.635 
-13.311 -0.151 -67.691 
-16.068 -2.518 -72.904 
-16.151 -2.398 -72.965 
-5.271 -6.635 -71.100 
-5.223 -6.359 -71.038 
11.068 2.470 -72.007 
11.289 2.639 -72.241 
-3.951 -1.151 -74.414 
-3.929 -1.004 -74.393 
-15.335 -5.861 -75.081 
-15.371 -5.685 -75.299 
-6.584 -8.264 -67.352 
-6.383 -7.999 -67.320 
9.005 -6.995 -63.862 
9.012 -6.804 -63.776 
-4.692 3.998 -62.404 
-4.694 4.162 -62.253 
11.345 -0.212 -73.744 
11.285 -0.180 -73.772 
8.248 -7.400 -64.561 
8.276 -7.214 -64.590 
4.687 11.264 -73.002 
4.465 11.355 -73.168 
-8.811 12.112 -64.033 
-8.819 12.350 -64.103 
-14.208 0.107 -74.206 
-14.037 0.305 -74.372 
8.147 -11.026 -69.854 
8.272 -10.853 -69.698 
-6.868 9.706 -75.522 
-6.981 9.740 -75.628 
-7.309 -3.421 -68.539 
-7.259 -3.332 -68.524 
-11.295 -5.649 -69.498 
-11.149 -5.399 -69.671 
-3.065 -0.678 -65.809 
-2.988 -0.451 -65.753 
8.934 8.516 -71.221 
8.952 8.632 -71.429 
-5.695 -1.029 -62.476 
-5.679 -0.912 -62.634 
15.971 7.560 -68.716 
15.979 7.665 -68.743 
-10.251 -1.320 -62.618 
-10.239 -1.149 -62.734 
9.483 -5.950 -72.296 
9.642 -5.902 -72.584 
10.894 11.752 -65.332 
10.801 11.884 -65.296 
15.305 -0.013 -72.069 
15.390 -0.015 -72.167 
-11.784 2.989 -64.454 
-11.732 3.078 -64.609 
3.414 -4.392 -61.331 
3.635 -4.169 -61.417 
-14.295 8.276 -69.802 
-14.069 8.316 -69.846 
-8.202 -3.549 -64.973 
-8.106 -3.356 -65.109 
3.526 -12.282 -71.033 
3.709 -12.171 -71.242 
2.295 12.139 -73.194 
2.204 12.273 -73.273 
12.210 7.591 -67.542 
12.220 7.661 -67.590 
11.436 -2.233 -63.656 
11.706 -1.992 -63.935 
-10.789 5.776 -68.521 
-10.518 5.874 -68.553 
8.124 -5.528 -63.413 
8.127 -5.330 -63.401 
-6.017 5.356 -75.751 
-5.955 5.363 -75.747 
-7.842 9.704 -66.745 
-7.739 9.881 -66.748 
-12.758 12.925 -66.641 
-12.700 12.946 -66.664 
7.325 -8.095 -66.269 
7.364 -8.098 -66.392 
16.976 -3.366 -68.689 
16.858 -3.268 -68.752 
4.786 -2.038 -63.923 
4.946 -1.842 -64.030 
-2.337 0.874 -69.180 
-2.244 1.031 -69.236 
-8.204 11.966 -70.968 
-8.234 12.080 -71.108 
-4.810 -0.800 -74.317 
-4.715 -0.605 -74.214 
6.897 -7.061 -64.748 
6.808 -6.982 -64.781 
-14.586 -11.779 -72.219 
-14.595 -11.680 -72.272 
14.925 3.315 -66.558 
15.000 3.457 -66.533 
-4.324 -4.575 -71.552 
-4.139 -4.355 -71.695 
7.107 3.725 -63.376 
7.270 3.948 -63.467 
-10.979 11.846 -65.431 
-10.931 11.919 -65.459 
9.510 -3.197 -63.643 
9.630 -3.033 -63.960 
4.020 -1.786 -61.199 
4.138 -1.539 -61.190 
11.961 -8.392 -67.023 
12.055 -8.198 -66.982 
3.329 -11.061 -70.600 
3.572 -10.967 -70.835 
-11.853 1.738 -72.682 
-11.766 1.876 -72.795 
14.964 10.685 -74.801 
14.917 10.793 -74.979 
-15.600 2.920 -74.448 
-15.620 3.026 -74.607 
6.621 1.255 -63.275 
6.891 1.425 -63.249 
3.209 -11.116 -76.243 
3.428 -11.062 -76.355 
-5.091 -12.607 -64.725 
-4.943 -12.540 -64.936 
-6.185 -6.063 -76.143 
-6.175 -5.898 -76.299 
-6.758 -10.350 -71.375 
-6.602 -10.125 -71.343 
-4.889 -0.758 -68.043 
-4.815 -0.529 -68.107 
-15.638 -1.181 -72.575 
-15.431 -1.089 -72.776 
-0.036 3.351 -71.852 
0.044 3.565 -71.820 
-1.979 -10.805 -71.367 
-2.000 -10.658 -71.490 
-8.819 -7.954 -75.968 
-8.759 -7.856 -76.137 
6.068 -3.296 -68.363 
6.194 -3.108 -68.618 
[...]
POINT_DATA 1024 
SCALARS Umean double 1 
LOOKUP_TABLE default
0.19740 
0.19740 
0.07799 
0.07799 
0.15550 
0.15550 
0.14450 
0.14450 
0.14662 
0.14662 
0.14748 
0.14748 
0.07781 
0.07781 
0.09921 
0.09921 
0.19999 
0.19999 
0.14384 
0.14384 
0.15829 
0.15829 
0.14531 
0.14531 
0.16492 
0.16492 
0.15089 
0.15089 
0.14119 
0.14119 
0.13546 
0.13546 
0.17201 
0.17201 
0.09253 
0.09253 
0.06557 
0.06557 
0.11873 
0.11873 
0.13662 
0.13662 
0.10582 
0.10582 
0.14186 
0.14186 
0.15212 
0.15212 
0.12785 
0.12785 
0.16320 
0.16320 
0.12157 
0.12157 
0.07719 
0.07719 
0.10851 
0.10851 
0.10088 
0.10088 
0.13966 
0.13966 
0.12929 
0.12929 
0.12069 
0.12069 
0.10543 
0.10543 
0.13684 
0.13684 
0.17938 
0.17938 
0.20024 
0.20024 
0.14261 
0.14261 
0.11842 
0.11842 
0.19701 
0.19701 
0.05739 
0.05739 
0.06425 
0.06425 
0.12240 
0.12240 
0.08398 
0.08398 
0.17108 
0.17108 
0.10294 
0.10294 
0.11244 
0.11244 
0.07785 
0.07785 
0.11642 
0.11642 
0.19912 
0.19912 
0.12001 
0.12001 
0.14130 
0.14130 
0.13180 
0.13180 
0.15933 
0.15933 
0.07847 
0.07847 
0.15896 
0.15896 
0.12589 
0.12589 
0.12010 
0.12010 
0.17706 
0.17706 
0.07470 
0.07470 
0.09352 
0.09352 
0.14051 
0.14051 
0.24085 
0.24085 
0.14371 
0.14371 
0.22697 
0.22697 
0.15629 
0.15629 
0.10645 
0.10645 
0.17844 
0.17844 
0.07966 
0.07966 
0.11090 
0.11090 
0.14959 
0.14959 
0.09860 
0.09860 
0.13701 
0.13701 
0.04497 
0.04497 
0.11350 
0.11350 
0.15834 
0.15834 
0.04175 
0.04175 
0.14061 
0.14061 
0.10393 
0.10393 
0.15823 
0.15823 
0.15998 
0.15998 
0.13736 
0.13736 
0.12306 
0.12306 
0.05913 
0.05913 
0.06776 
0.06776 
0.16449 
0.16449 
0.09231 
0.09231 
0.14804 
0.14804 
0.10785 
0.10785 
0.18834 
0.18834 
0.20662 
0.20662 
0.17648 
0.17648 
0.14595 
0.14595 
0.20104 
0.20104 
0.13112 
0.13112 
0.18343 
0.18343 
0.15933 
0.15933 
0.13222 
0.13222 
0.18540 
0.18540 
0.13190 
0.13190 
0.12217 
0.12217 
0.18175 
0.18175 
0.14380 
0.14380 
0.14089 
0.14089 
0.02585 
0.02585 
0.12222 
0.12222 
0.11106 
0.11106 
0.14079 
0.14079 
0.08401 
0.08401 
0.09842 
0.09842 
0.09823 
0.09823 
0.15111 
0.15111 
0.18873 
0.18873 
0.16328 
0.16328 
0.11849 
0.11849 
0.17131 
0.17131 
0.13703 
0.13703 
0.14051 
0.14051 
0.15880 
0.15880 
0.08548 
0.08548 
0.17827 
0.17827 
0.15437 
0.15437 
0.10849 
0.10849 
0.04215 
0.04215 
0.05080 
0.05080 
0.07967 
0.07967 
0.09956 
0.09956 
0.13471 
0.13471 
0.06567 
0.06567 
0.19076 
0.19076 
0.18781 
0.18781 
0.06004 
0.06004 
0.05268 
0.05268 
0.18358 
0.18358 
0.05691 
0.05691 
0.11763 
0.11763 
0.14903 
0.14903 
0.07948 
0.07948 
0.05974 
0.05974 
0.13160 
0.13160 
0.13862 
0.13862 
0.10124 
0.10124 
0.08408 
0.08408 
0.16755 
0.16755 
0.15921 
0.15921 
0.18342 
0.18342 
0.18082 
0.18082 
0.11954 
0.11954 
0.07012 
0.07012 
0.15998 
0.15998 
0.07620 
0.07620 
0.16343 
0.16343 
0.07907 
0.07907 
0.14346 
0.14346 
0.18177 
0.18177 
0.07506 
0.07506 
0.14124 
0.14124 
0.16707 
0.16707 
0.10479 
0.10479 
0.11147 
0.11147 
0.03677 
0.03677 
0.09516 
0.09516 
0.14588 
0.14588 
0.12410 
0.12410 
0.15492 
0.15492 
0.13218 
0.13218 
0.07931 
0.07931 
0.05159 
0.05159 
0.16863 
0.16863 
0.12308 
0.12308 
0.11942 
0.11942 
0.09863 
0.09863 
0.05436 
0.05436 
0.10349 
0.10349 
0.16623 
0.16623 
0.08272 
0.08272 
0.06487 
0.06487 
0.09307 
0.09307 
0.16276 
0.16276 
0.11685 
0.11685 
0.12744 
0.12744 
0.14958 
0.14958 
0.09011 
0.09011 
0.04273 
0.04273 
0.22849 
0.22849 
0.14497 
0.14497 
0.09919 
0.09919 
0.03126 
0.03126 
0.10240 
0.10240 
0.03292 
0.03292 
0.06453 
0.06453 
0.08291 
0.08291 
0.13735 
0.13735 
0.09544 
0.09544 
0.09151 
0.09151 
0.12006 
0.12006 
0.06175 
0.06175 
0.05633 
0.05633 
0.08126 
0.08126 
0.16053 
0.16053 
0.14541 
0.14541 
0.04587 
0.04587 
0.18827 
0.18827 
0.13694 
0.13694 
0.10972 
0.10972 
0.17544 
0.17544 
0.09922 
0.09922 
0.10672 
0.10672 
0.09607 
0.09607 
0.16006 
0.16006 
0.12592 
0.12592 
0.13315 
0.13315 
0.11365 
0.11365 
0.13783 
0.13783 
0.12451 
0.12451 
0.15142 
0.15142 
0.11535 
0.11535 
0.09641 
0.09641 
0.10218 
0.10218 
0.17047 
0.17047 
0.10705 
0.10705 
0.13940 
0.13940 
0.16839 
0.16839 
0.16380 
0.16380 
0.15739 
0.15739 
0.11939 
0.11939 
0.10596 
0.10596 
0.11119 
0.11119 
0.14059 
0.14059 
0.08895 
0.08895 
0.11154 
0.11154 
0.06243 
0.06243 
0.07941 
0.07941 
0.11810 
0.11810 
0.03102 
0.03102 
0.16077 
0.16077 
0.15603 
0.15603 
0.07665 
0.07665 
0.14097 
0.14097 
0.18889 
0.18889 
0.14317 
0.14317 
0.03393 
0.03393 
0.07947 
0.07947 
0.09770 
0.09770 
0.10994 
0.10994 
0.20605 
0.20605 
0.04540 
0.04540 
0.13205 
0.13205 
0.14299 
0.14299 
0.06272 
0.06272 
0.06669 
0.06669 
0.06443 
0.06443 
0.17472 
0.17472 
0.18450 
0.18450 
0.13010 
0.13010 
0.05720 
0.05720 
0.03083 
0.03083 
0.13252 
0.13252 
0.02495 
0.02495 
0.09967 
0.09967 
0.14596 
0.14596 
0.13458 
0.13458 
0.07206 
0.07206 
0.10038 
0.10038 
0.03292 
0.03292 
0.11604 
0.11604 
0.04923 
0.04923 
0.13997 
0.13997 
0.13658 
0.13658 
0.03597 
0.03597 
0.15112 
0.15112 
0.15117 
0.15117 
0.21310 
0.21310 
0.10583 
0.10583 
0.07168 
0.07168 
0.19233 
0.19233 
0.12709 
0.12709 
0.20139 
0.20139 
0.14455 
0.14455 
0.17321 
0.17321 
0.08721 
0.08721 
0.17756 
0.17756 
0.18559 
0.18559 
0.20033 
0.20033 
0.09114 
0.09114 
0.17125 
0.17125 
0.14504 
0.14504 
0.06912 
0.06912 
0.05572 
0.05572 
0.09909 
0.09909 
0.06454 
0.06454 
0.06577 
0.06577 
0.14417 
0.14417 
0.16409 
0.16409 
0.14900 
0.14900 
0.13104 
0.13104 
0.09192 
0.09192 
0.14886 
0.14886 
0.17927 
0.17927 
0.10544 
0.10544 
0.10570 
0.10570 
0.20022 
0.20022 
0.12629 
0.12629 
0.08093 
0.08093 
0.07032 
0.07032 
0.08808 
0.08808 
0.08487 
0.08487 
0.16428 
0.16428 
0.20740 
0.20740 
0.07032 
0.07032 
0.14468 
0.14468 
0.13283 
0.13283 
0.11106 
0.11106 
0.11309 
0.11309 
0.10334 
0.10334 
0.12537 
0.12537 
0.11115 
0.11115 
0.09206 
0.09206 
0.09392 
0.09392 
0.17012 
0.17012 
0.11593 
0.11593 
0.16069 
0.16069 
0.13225 
0.13225 
0.16092 
0.16092 
0.14337 
0.14337 
0.11596 
0.11596 
0.14729 
0.14729 
0.10492 
0.10492 
0.13407 
0.13407 
0.10857 
0.10857 
0.05984 
0.05984 
0.05369 
0.05369 
0.15687 
0.15687 
0.16570 
0.16570 
0.13797 
0.13797 
0.17671 
0.17671 
0.17404 
0.17404 
0.08006 
0.08006 
0.12537 
0.12537 
0.13578 
0.13578 
0.15077 
0.15077 
0.15166 
0.15166 
0.05756 
0.05756 
0.05766 
0.05766 
0.10112 
0.10112 
0.17393 
0.17393 
0.19935 
0.19935 
0.11395 
0.11395 
0.06933 
0.06933 
0.16039 
0.16039 
0.10704 
0.10704 
0.05255 
0.05255 
0.17432 
0.17432 
0.25868 
0.25868 
0.21380 
0.21380 
0.11922 
0.11922 
0.16901 
0.16901 
0.22477 
0.22477 
0.17097 
0.17097 
0.14058 
0.14058 
0.12062 
0.12062 
0.03486 
0.03486 
0.16939 
0.16939 
0.10975 
0.10975 
0.17337 
0.17337 
0.15039 
0.15039 
0.11661 
0.11661 
0.11213 
0.11213 
0.13556 
0.13556 
0.06602 
0.06602 
0.08976 
0.08976 
0.15514 
0.15514 
0.14344 
0.14344 
0.09288 
0.09288 
0.14543 
0.14543 
0.21459 
0.21459 
0.12146 
0.12146 
0.17497 
0.17497 
0.06195 
0.06195 
0.14966 
0.14966 
0.07982 
0.07982 
0.12408 
0.12408 
0.13474 
0.13474 
0.22027 
0.22027 
0.11921 
0.11921 
0.15334 
0.15334 
0.06029 
0.06029 
0.18731 
0.18731 
0.13112 
0.13112 
0.09530 
0.09530 
0.11746 
0.11746 
0.05619 
0.05619 
0.07888 
0.07888 
0.11926 
0.11926 
0.08382 
0.08382 
0.22373 
0.22373 
0.15818 
0.15818 
0.09545 
0.09545 
0.10616 
0.10616 
0.13493 
0.13493 
0.14689 
0.14689 
0.15250 
0.15250 
0.11048 
0.11048 
0.16934 
0.16934 
0.12477 
0.12477 
0.12152 
0.12152 
0.16558 
0.16558 
0.17677 
0.17677 
0.06344 
0.06344 
0.07155 
0.07155 
0.10501 
0.10501 
0.19380 
0.19380 
0.09609 
0.09609 
0.08800 
0.08800 
0.14912 
0.14912 
0.11034 
0.11034 
0.09409 
0.09409 
0.16477 
0.16477 
0.18187 
0.18187 
0.09347 
0.09347 
0.06555 
0.06555 
0.23614 
0.23614 
0.15400 
0.15400 
0.08189 
0.08189 
0.15534 
0.15534 
0.05742 
0.05742 
0.14545 
0.14545 
0.21636 
0.21636 
0.16404 
0.16404 
0.17804 
0.17804 
0.17794 
0.17794 
0.05952 
0.05952 
0.12208 
0.12208 
0.27757 
0.27757 
0.14866 
0.14866 
0.21293 
0.21293 
0.09406 
0.09406 
0.08895 
0.08895 
0.17570 
0.17570 
0.14434 
0.14434 
0.11832 
0.11832 
0.14164 
0.14164 
0.10345 
0.10345 
0.12650 
0.12650 
0.06967 
0.06967 
0.08619 
0.08619 
0.12215 
0.12215 
0.08179 
0.08179 
0.16257 
0.16257 
0.19363 
0.19363 
0.08732 
0.08732 
0.26471 
0.26471 
0.13428 
0.13428 
0.14128 
0.14128 
0.04575 
0.04575 
0.17339 
0.17339 
0.14578 
0.14578 
0.08581 
0.08581 
0.08386 
0.08386 
0.19829 
0.19829 
0.03651 
0.03651 
0.10014 
0.10014 
0.09046 
0.09046 
0.03680 
0.03680 
0.06455 
0.06455 
0.18077 
0.18077 
0.05361 
0.05361 
0.11551 
0.11551 
0.05837 
0.05837 
0.04961 
0.04961 
0.12318 
0.12318 
0.12846 
0.12846 
0.03542 
0.03542 
0.13956 
0.13956 
0.08302 
0.08302 
0.12875 
0.12875 
0.19167 
0.19167 
0.10365 
0.10365 
0.15776 
0.15776 
0.09215 
0.09215 
0.09522 
0.09522 
0.11150 
0.11150 
0.16709 
0.16709 
0.15173 
0.15173 
0.10350 
0.10350 
0.05300 
0.05300 
0.11262 
0.11262 
0.10689 
0.10689 
0.07490 
0.07490 
0.09348 
0.09348 
0.07828 
0.07828 
0.13718 
0.13718 
0.07776 
0.07776 
0.06050 
0.06050 
0.15967 
0.15967 
0.15230 
0.15230 
0.07581 
0.07581 
0.09627 
0.09627 
0.10316 
0.10316 
0.07887 
0.07887 
0.11087 
0.11087 
0.13460 
0.13460 
0.03717 
0.03717 
0.11554 
0.11554 
0.09867 
0.09867 
0.23424 
0.23424 
0.12026 
0.12026 
0.15711 
0.15711 
0.14697 
0.14697 
0.17296 
0.17296 
0.14587 
0.14587 
0.13294 
0.13294 
SCALARS Umean_X double 1 
LOOKUP_TABLE default
0.02400 
0.02400 
0.02650 
0.02650 
-0.03500 
-0.03500 
-0.10850 
-0.10850 
0.02800 
0.02800 
0.02850 
0.02850 
0.02850 
0.02850 
0.00950 
0.00950 
-0.00500 
-0.00500 
0.00700 
0.00700 
0.11350 
0.11350 
0.02100 
0.02100 
-0.02500 
-0.02500 
0.03600 
0.03600 
0.00700 
0.00700 
0.01300 
0.01300 
0.04850 
0.04850 
0.03300 
0.03300 
0.04300 
0.04300 
-0.00350 
-0.00350 
-0.00100 
-0.00100 
0.04750 
0.04750 
0.03150 
0.03150 
0.00950 
0.00950 
0.10250 
0.10250 
-0.05300 
-0.05300 
0.05700 
0.05700 
0.02400 
0.02400 
0.07800 
0.07800 
-0.01150 
-0.01150 
0.03800 
0.03800 
0.04650 
0.04650 
0.00600 
0.00600 
0.09300 
0.09300 
0.02100 
0.02100 
0.05250 
0.05250 
-0.07350 
-0.07350 
0.09200 
0.09200 
-0.03550 
-0.03550 
0.07850 
0.07850 
-0.04450 
-0.04450 
0.04450 
0.04450 
0.06300 
0.06300 
0.06200 
0.06200 
0.04500 
0.04500 
0.00350 
0.00350 
-0.06850 
-0.06850 
0.00600 
0.00600 
-0.05200 
-0.05200 
0.08000 
0.08000 
0.09600 
0.09600 
0.07650 
0.07650 
0.04000 
0.04000 
0.05450 
0.05450 
0.01900 
0.01900 
0.15050 
0.15050 
0.00950 
0.00950 
0.06100 
0.06100 
0.08700 
0.08700 
0.06950 
0.06950 
0.07550 
0.07550 
0.06450 
0.06450 
-0.00550 
-0.00550 
0.06800 
0.06800 
0.09600 
0.09600 
0.05450 
0.05450 
0.00550 
0.00550 
0.05400 
0.05400 
0.03200 
0.03200 
0.09250 
0.09250 
0.07250 
0.07250 
0.01050 
0.01050 
0.07950 
0.07950 
-0.00550 
-0.00550 
0.00500 
0.00500 
0.05550 
0.05550 
0.02700 
0.02700 
0.00550 
0.00550 
0.04250 
0.04250 
0.04350 
0.04350 
0.05050 
0.05050 
0.06000 
0.06000 
0.05850 
0.05850 
0.01150 
0.01150 
0.03800 
0.03800 
0.14750 
0.14750 
0.04450 
0.04450 
0.03350 
0.03350 
0.02350 
0.02350 
0.01950 
0.01950 
0.10150 
0.10150 
0.06350 
0.06350 
0.04950 
0.04950 
0.13250 
0.13250 
0.04850 
0.04850 
0.09500 
0.09500 
0.06000 
0.06000 
-0.02100 
-0.02100 
0.10050 
0.10050 
0.03550 
0.03550 
-0.00300 
-0.00300 
0.15000 
0.15000 
0.05350 
0.05350 
0.07800 
0.07800 
0.02450 
0.02450 
0.09550 
0.09550 
0.03600 
0.03600 
0.02550 
0.02550 
0.00250 
0.00250 
0.01400 
0.01400 
0.04400 
0.04400 
0.08600 
0.08600 
0.00500 
0.00500 
0.04000 
0.04000 
0.05800 
0.05800 
0.04000 
0.04000 
-0.05400 
-0.05400 
0.06700 
0.06700 
0.09100 
0.09100 
0.04600 
0.04600 
0.09050 
0.09050 
0.08700 
0.08700 
0.04950 
0.04950 
0.01750 
0.01750 
0.02850 
0.02850 
-0.04500 
-0.04500 
-0.03250 
-0.03250 
0.07700 
0.07700 
0.01400 
0.01400 
0.08750 
0.08750 
0.03150 
0.03150 
-0.01250 
-0.01250 
0.04300 
0.04300 
-0.00550 
-0.00550 
0.02600 
0.02600 
-0.03800 
-0.03800 
0.08450 
0.08450 
0.04350 
0.04350 
0.01150 
0.01150 
0.02250 
0.02250 
0.06950 
0.06950 
0.05350 
0.05350 
-0.02150 
-0.02150 
0.12550 
0.12550 
0.06000 
0.06000 
0.11450 
0.11450 
0.03050 
0.03050 
0.04150 
0.04150 
0.04450 
0.04450 
-0.03050 
-0.03050 
0.05650 
0.05650 
-0.00200 
-0.00200 
-0.04150 
-0.04150 
0.02400 
0.02400 
0.11050 
0.11050 
0.01100 
0.01100 
-0.01800 
-0.01800 
0.10050 
0.10050 
0.00350 
0.00350 
-0.00100 
-0.00100 
-0.03000 
-0.03000 
0.01400 
0.01400 
-0.11100 
-0.11100 
-0.00400 
-0.00400 
0.08550 
0.08550 
0.06250 
0.06250 
-0.05650 
-0.05650 
0.02500 
0.02500 
0.07300 
0.07300 
0.03850 
0.03850 
0.00900 
0.00900 
0.00800 
0.00800 
0.00400 
0.00400 
0.00600 
0.00600 
0.07950 
0.07950 
-0.04650 
-0.04650 
0.04250 
0.04250 
0.02600 
0.02600 
0.11050 
0.11050 
0.11300 
0.11300 
0.04800 
0.04800 
0.09150 
0.09150 
-0.04550 
-0.04550 
0.00500 
0.00500 
0.13500 
0.13500 
0.13550 
0.13550 
0.00150 
0.00150 
0.03100 
0.03100 
0.05150 
0.05150 
0.02900 
0.02900 
0.01950 
0.01950 
-0.05900 
-0.05900 
0.08000 
0.08000 
0.04650 
0.04650 
-0.01500 
-0.01500 
0.04750 
0.04750 
-0.04450 
-0.04450 
-0.00450 
-0.00450 
0.03750 
0.03750 
0.09250 
0.09250 
0.08150 
0.08150 
0.02400 
0.02400 
0.06000 
0.06000 
0.05900 
0.05900 
0.04700 
0.04700 
0.12150 
0.12150 
0.04350 
0.04350 
-0.02350 
-0.02350 
-0.01000 
-0.01000 
0.13500 
0.13500 
0.10950 
0.10950 
0.07400 
0.07400 
0.00500 
0.00500 
0.07800 
0.07800 
0.03700 
0.03700 
0.10350 
0.10350 
0.04000 
0.04000 
-0.01050 
-0.01050 
0.03000 
0.03000 
0.06300 
0.06300 
-0.01800 
-0.01800 
0.06800 
0.06800 
0.12200 
0.12200 
0.06500 
0.06500 
0.09950 
0.09950 
0.07350 
0.07350 
0.04150 
0.04150 
0.08850 
0.08850 
0.09200 
0.09200 
-0.05450 
-0.05450 
-0.01750 
-0.01750 
-0.01250 
-0.01250 
0.02800 
0.02800 
0.01200 
0.01200 
0.02050 
0.02050 
0.08700 
0.08700 
0.11250 
0.11250 
-0.04850 
-0.04850 
0.06250 
0.06250 
0.08850 
0.08850 
0.07100 
0.07100 
-0.00450 
-0.00450 
-0.00700 
-0.00700 
-0.00600 
-0.00600 
0.09800 
0.09800 
0.17150 
0.17150 
0.03450 
0.03450 
0.01700 
0.01700 
0.03300 
0.03300 
0.03100 
0.03100 
0.03850 
0.03850 
-0.01900 
-0.01900 
0.04900 
0.04900 
0.11800 
0.11800 
0.09000 
0.09000 
0.02900 
0.02900 
-0.00150 
-0.00150 
0.05600 
0.05600 
-0.01150 
-0.01150 
-0.03450 
-0.03450 
0.05900 
0.05900 
0.03250 
0.03250 
0.06450 
0.06450 
0.02000 
0.02000 
0.00350 
0.00350 
-0.03850 
-0.03850 
0.01100 
0.01100 
0.02400 
0.02400 
0.00550 
0.00550 
-0.00300 
-0.00300 
-0.00000 
-0.00000 
0.07900 
0.07900 
-0.05500 
-0.05500 
-0.07250 
-0.07250 
0.04300 
0.04300 
0.09850 
0.09850 
0.11200 
0.11200 
0.08100 
0.08100 
0.08200 
0.08200 
0.11250 
0.11250 
0.01500 
0.01500 
0.09200 
0.09200 
0.09450 
0.09450 
0.09000 
0.09000 
0.01150 
0.01150 
0.05500 
0.05500 
0.02450 
0.02450 
0.00350 
0.00350 
0.03350 
0.03350 
0.00250 
0.00250 
0.01500 
0.01500 
0.00050 
0.00050 
0.06200 
0.06200 
0.10100 
0.10100 
0.07800 
0.07800 
0.06350 
0.06350 
0.03400 
0.03400 
0.07100 
0.07100 
0.07700 
0.07700 
0.00300 
0.00300 
-0.01450 
-0.01450 
0.04250 
0.04250 
0.01500 
0.01500 
-0.01800 
-0.01800 
0.01250 
0.01250 
0.01700 
0.01700 
-0.00750 
-0.00750 
0.09750 
0.09750 
0.05400 
0.05400 
0.06350 
0.06350 
0.05550 
0.05550 
-0.03050 
-0.03050 
0.01700 
0.01700 
0.03500 
0.03500 
0.09650 
0.09650 
0.02550 
0.02550 
0.06250 
0.06250 
0.08200 
0.08200 
0.08750 
0.08750 
0.08350 
0.08350 
-0.08950 
-0.08950 
0.05600 
0.05600 
0.06500 
0.06500 
0.06300 
0.06300 
0.05200 
0.05200 
0.03450 
0.03450 
0.03400 
0.03400 
-0.00050 
-0.00050 
0.00600 
0.00600 
0.06700 
0.06700 
0.05450 
0.05450 
0.00600 
0.00600 
0.03150 
0.03150 
0.07400 
0.07400 
0.08650 
0.08650 
0.07000 
0.07000 
0.07250 
0.07250 
-0.03300 
-0.03300 
0.10800 
0.10800 
0.09550 
0.09550 
0.07750 
0.07750 
0.07600 
0.07600 
0.01100 
0.01100 
0.04600 
0.04600 
-0.06600 
-0.06600 
-0.02650 
-0.02650 
0.05650 
0.05650 
0.04350 
0.04350 
0.04500 
0.04500 
0.00400 
0.00400 
0.09400 
0.09400 
0.00750 
0.00750 
0.08400 
0.08400 
0.03800 
0.03800 
0.04750 
0.04750 
0.05350 
0.05350 
0.11250 
0.11250 
0.15050 
0.15050 
0.09700 
0.09700 
0.02350 
0.02350 
0.10600 
0.10600 
0.01050 
0.01050 
0.05350 
0.05350 
0.10200 
0.10200 
0.07300 
0.07300 
-0.02750 
-0.02750 
0.00300 
0.00300 
0.08600 
0.08600 
0.07700 
0.07700 
0.01950 
0.01950 
0.00450 
0.00450 
0.01100 
0.01100 
-0.03900 
-0.03900 
0.00800 
0.00800 
0.07500 
0.07500 
0.18450 
0.18450 
0.07700 
0.07700 
0.10250 
0.10250 
0.02850 
0.02850 
0.06150 
0.06150 
0.00550 
0.00550 
0.08150 
0.08150 
0.10000 
0.10000 
0.03500 
0.03500 
0.05750 
0.05750 
0.01600 
0.01600 
0.00150 
0.00150 
0.09300 
0.09300 
0.07550 
0.07550 
0.01650 
0.01650 
0.08400 
0.08400 
0.02750 
0.02750 
0.07550 
0.07550 
-0.07050 
-0.07050 
0.04100 
0.04100 
0.04050 
0.04050 
0.05600 
0.05600 
0.04750 
0.04750 
0.01800 
0.01800 
-0.05150 
-0.05150 
0.08200 
0.08200 
0.04550 
0.04550 
0.06000 
0.06000 
0.05850 
0.05850 
0.09150 
0.09150 
-0.06800 
-0.06800 
0.10350 
0.10350 
0.12350 
0.12350 
0.04500 
0.04500 
-0.01450 
-0.01450 
-0.03200 
-0.03200 
0.09800 
0.09800 
0.05600 
0.05600 
0.03500 
0.03500 
0.01900 
0.01900 
0.02300 
0.02300 
0.07550 
0.07550 
0.13600 
0.13600 
0.06700 
0.06700 
0.00750 
0.00750 
-0.04200 
-0.04200 
0.07600 
0.07600 
0.09050 
0.09050 
0.04100 
0.04100 
0.05200 
0.05200 
0.04750 
0.04750 
-0.00500 
-0.00500 
0.08350 
0.08350 
0.09750 
0.09750 
0.04400 
0.04400 
0.13100 
0.13100 
-0.02050 
-0.02050 
0.07050 
0.07050 
-0.01100 
-0.01100 
0.07600 
0.07600 
0.08750 
0.08750 
0.03100 
0.03100 
-0.06950 
-0.06950 
0.13400 
0.13400 
0.08650 
0.08650 
0.06850 
0.06850 
0.04400 
0.04400 
-0.05450 
-0.05450 
0.01550 
0.01550 
-0.04600 
-0.04600 
0.06450 
0.06450 
-0.02750 
-0.02750 
0.06150 
0.06150 
0.03200 
0.03200 
0.04700 
0.04700 
0.06050 
0.06050 
0.04000 
0.04000 
-0.07600 
-0.07600 
0.06500 
0.06500 
0.03650 
0.03650 
0.02850 
0.02850 
0.05500 
0.05500 
-0.01800 
-0.01800 
0.01900 
0.01900 
0.07450 
0.07450 
0.02950 
0.02950 
0.09150 
0.09150 
0.06900 
0.06900 
-0.00150 
-0.00150 
-0.02250 
-0.02250 
0.10150 
0.10150 
0.04750 
0.04750 
-0.07150 
-0.07150 
0.01000 
0.01000 
-0.04350 
-0.04350 
0.09200 
0.09200 
0.09250 
0.09250 
0.02250 
0.02250 
0.04950 
0.04950 
0.05250 
0.05250 
-0.09900 
-0.09900 
0.10000 
0.10000 
-0.06600 
-0.06600 
-0.03250 
-0.03250 
0.08600 
0.08600 
0.04250 
0.04250 
0.03700 
0.03700 
0.01400 
0.01400 
0.10950 
0.10950 
-0.04550 
-0.04550 
0.03100 
0.03100 
-0.01150 
-0.01150 
-0.04450 
-0.04450 
0.07000 
0.07000 
0.01650 
0.01650 
-0.00150 
-0.00150 
-0.00850 
-0.00850 
0.02950 
0.02950 
-0.05800 
-0.05800 
0.12800 
0.12800 
0.01650 
0.01650 
0.00450 
0.00450 
-0.00900 
-0.00900 
0.04850 
0.04850 
0.00150 
0.00150 
0.02000 
0.02000 
0.01250 
0.01250 
0.02550 
0.02550 
0.03450 
0.03450 
-0.06550 
-0.06550 
0.12000 
0.12000 
0.01150 
0.01150 
0.07350 
0.07350 
0.04800 
0.04800 
-0.01450 
-0.01450 
0.01400 
0.01400 
0.00950 
0.00950 
SCALARS Umean_Y double 1 
LOOKUP_TABLE default
0.18700 
0.18700 
0.06800 
0.06800 
0.14600 
0.14600 
0.09400 
0.09400 
0.13150 
0.13150 
0.14100 
0.14100 
0.07000 
0.07000 
0.09650 
0.09650 
0.19950 
0.19950 
0.13450 
0.13450 
0.11000 
0.11000 
0.12800 
0.12800 
0.16050 
0.16050 
0.13300 
0.13300 
0.14050 
0.14050 
0.13250 
0.13250 
0.15450 
0.15450 
0.08050 
0.08050 
0.04550 
0.04550 
0.11100 
0.11100 
0.10450 
0.10450 
0.09000 
0.09000 
0.13300 
0.13300 
0.11200 
0.11200 
0.07050 
0.07050 
0.13600 
0.13600 
0.10250 
0.10250 
0.06050 
0.06050 
0.04150 
0.04150 
0.09850 
0.09850 
0.12350 
0.12350 
0.11450 
0.11450 
0.11550 
0.11550 
0.04950 
0.04950 
0.11350 
0.11350 
0.15450 
0.15450 
0.17650 
0.17650 
0.03250 
0.03250 
0.11050 
0.11050 
0.10150 
0.10150 
0.03200 
0.03200 
0.04350 
0.04350 
0.10250 
0.10250 
0.05650 
0.05650 
0.16050 
0.16050 
0.06650 
0.06650 
0.08900 
0.08900 
0.07200 
0.07200 
0.10300 
0.10300 
0.11500 
0.11500 
-0.07200 
-0.07200 
0.08300 
0.08300 
0.12550 
0.12550 
0.13100 
0.13100 
0.04200 
0.04200 
-0.03950 
-0.03950 
0.12550 
0.12550 
0.10000 
0.10000 
0.08600 
0.08600 
0.02550 
0.02550 
0.05500 
0.05500 
0.09000 
0.09000 
0.20550 
0.20550 
0.07700 
0.07700 
0.19150 
0.19150 
0.06350 
0.06350 
0.10450 
0.10450 