# vtk DataFile Version 2.1 
Trajects from timestep 118 with color option 
ASCII 
 
DATASET POLYDATA POINTS 1024 float 
1.884 5.488 -70.184 
1.883 5.672 -70.121 
6.022 1.789 -71.955 
6.178 1.965 -72.180 
0.224 7.612 -74.394 
0.320 7.906 -74.450 
-1.058 5.568 -71.832 
-0.944 5.801 -71.726 
1.249 10.411 -69.610 
1.296 10.573 -69.563 
1.502 -6.536 -70.355 
1.694 -6.297 -70.496 
5.191 -3.418 -72.729 
5.363 -3.248 -72.906 
0.002 7.529 -68.244 
0.040 7.725 -68.222 
-7.429 1.423 -67.992 
-7.337 1.752 -68.193 
5.208 1.133 -71.711 
5.345 1.313 -71.944 
5.125 1.932 -70.981 
5.227 2.139 -71.230 
-1.381 10.344 -68.591 
-1.275 10.577 -68.558 
-1.169 4.370 -70.340 
-1.160 4.582 -70.352 
6.760 -3.666 -69.615 
6.919 -3.427 -69.913 
-14.625 -4.385 -70.749 
-14.327 -4.156 -70.653 
-2.869 7.291 -68.802 
-2.863 7.548 -68.836 
4.867 -0.453 -70.039 
4.979 -0.312 -70.221 
-0.308 9.366 -68.828 
-0.238 9.525 -68.827 
3.517 -6.773 -66.985 
3.771 -6.561 -67.133 
-8.724 8.696 -69.572 
-8.605 8.868 -69.353 
-3.508 -9.065 -60.666 
-3.292 -8.843 -60.850 
-10.688 5.927 -68.301 
-10.735 6.152 -68.282 
-9.377 11.995 -70.817 
-9.301 12.112 -70.856 
9.844 5.260 -72.115 
9.999 5.397 -72.372 
1.313 10.939 -67.406 
1.346 11.071 -67.301 
8.586 -8.311 -67.953 
8.687 -8.149 -68.155 
3.607 10.199 -71.615 
3.547 10.467 -71.644 
-15.984 -8.688 -74.266 
-15.943 -8.546 -74.280 
0.637 8.034 -68.276 
0.667 8.241 -68.281 
-13.481 10.240 -72.114 
-13.487 10.330 -72.139 
0.899 -4.767 -69.162 
1.157 -4.587 -69.285 
6.896 -0.997 -72.010 
6.983 -0.749 -72.263 
9.788 -1.455 -67.403 
9.823 -1.230 -67.473 
8.715 5.198 -68.977 
8.868 5.354 -69.111 
-7.228 11.426 -68.799 
-7.098 11.502 -68.759 
7.831 -1.749 -69.816 
7.879 -1.450 -70.222 
-4.014 1.048 -67.191 
-3.915 1.264 -67.247 
-0.882 12.171 -70.479 
-0.933 12.379 -70.409 
-9.767 1.480 -72.202 
-9.752 1.634 -72.382 
6.542 5.473 -72.240 
6.715 5.733 -72.347 
-2.920 -1.062 -67.491 
-2.816 -0.771 -67.713 
12.944 -2.015 -72.298 
12.951 -1.861 -72.250 
4.207 6.273 -66.688 
4.276 6.387 -66.819 
-0.527 3.121 -65.984 
-0.488 3.304 -66.089 
1.172 0.778 -68.600 
1.400 1.047 -68.760 
9.357 11.107 -70.958 
9.358 10.997 -71.170 
7.257 1.426 -74.152 
7.378 1.701 -74.365 
-4.884 3.766 -64.273 
-4.822 3.997 -64.261 
12.574 -1.868 -68.488 
12.500 -1.748 -68.410 
1.650 7.966 -71.845 
1.630 8.222 -71.840 
-0.616 12.158 -65.781 
-0.571 12.402 -65.714 
-6.600 4.047 -69.842 
-6.467 4.260 -69.963 
-14.221 -8.299 -74.105 
-14.223 -8.172 -74.195 
12.031 10.417 -71.185 
12.183 10.245 -71.260 
6.776 4.967 -67.420 
6.801 5.232 -67.594 
9.515 -2.972 -69.286 
9.613 -2.853 -69.426 
5.056 -7.256 -71.284 
5.201 -7.059 -71.599 
-15.317 -6.397 -70.932 
-15.112 -6.359 -71.214 
-12.937 -2.332 -67.338 
-12.850 -1.994 -67.623 
1.423 9.407 -66.379 
1.454 9.597 -66.297 
-1.703 -10.358 -69.992 
-1.524 -10.281 -70.165 
10.004 -0.797 -68.215 
9.981 -0.633 -68.248 
10.595 10.406 -68.788 
10.807 10.285 -68.886 
1.567 11.783 -65.392 
1.582 11.915 -65.266 
2.488 12.488 -70.509 
2.357 12.616 -70.592 
-7.373 -5.428 -67.677 
-7.119 -5.265 -68.022 
5.574 10.661 -73.031 
5.521 10.761 -73.156 
3.580 -9.472 -68.342 
3.791 -9.357 -68.460 
7.380 5.278 -66.269 
7.435 5.545 -66.455 
2.895 0.243 -70.295 
3.053 0.498 -70.411 
-0.088 -12.157 -67.786 
0.043 -12.018 -67.781 
1.687 7.934 -67.735 
1.698 8.134 -67.695 
0.434 -9.628 -66.096 
0.640 -9.480 -66.153 
4.911 -10.471 -69.821 
5.084 -10.412 -70.093 
2.317 -5.400 -74.352 
2.378 -5.222 -74.589 
-0.010 5.845 -76.661 
0.072 5.971 -76.814 
-1.155 11.628 -62.457 
-1.199 11.863 -62.408 
6.336 5.755 -63.631 
6.332 5.937 -63.700 
3.966 11.078 -68.976 
3.888 11.278 -68.944 
5.830 -1.972 -74.475 
5.942 -1.767 -74.597 
-1.622 -2.419 -67.107 
-1.561 -2.282 -67.301 
-8.253 2.154 -74.606 
-8.163 2.291 -74.655 
9.462 -2.332 -64.796 
9.580 -2.079 -64.913 
7.046 9.940 -70.008 
6.958 9.965 -70.053 
9.030 7.004 -68.597 
9.155 7.136 -68.676 
-1.336 12.022 -67.545 
-1.382 12.203 -67.490 
-6.034 0.071 -64.418 
-6.069 0.293 -64.439 
3.973 1.263 -64.620 
4.067 1.351 -64.674 
-2.203 -1.354 -71.892 
-2.039 -1.061 -71.979 
-13.399 11.438 -73.066 
-13.350 11.562 -72.946 
-3.070 -6.240 -65.645 
-2.945 -6.323 -65.975 
-6.337 -1.357 -66.641 
-6.165 -1.082 -66.943 
-10.466 -5.636 -67.230 
-10.254 -5.469 -67.391 
-7.485 1.454 -64.540 
-7.455 1.711 -64.668 
-4.770 2.199 -74.125 
-4.632 2.422 -74.211 
0.027 1.230 -64.021 
0.133 1.340 -64.101 
16.564 0.190 -67.717 
16.530 0.274 -67.763 
-6.848 7.667 -75.658 
-6.808 7.829 -75.613 
-2.597 3.542 -62.917 
-2.591 3.691 -62.981 
-12.989 -2.744 -71.532 
-13.020 -2.569 -71.739 
-0.544 5.358 -66.707 
-0.527 5.508 -66.630 
5.387 -11.018 -71.991 
5.617 -10.936 -72.362 
-5.257 -11.749 -70.243 
-5.165 -11.575 -70.288 
2.127 6.446 -72.494 
2.133 6.682 -72.468 
-6.981 -8.977 -69.590 
-6.937 -8.886 -69.755 
-14.385 -3.493 -70.612 
-14.036 -3.317 -70.718 
0.161 -7.796 -65.641 
0.519 -7.669 -66.028 
-15.678 10.258 -73.128 
-15.650 10.129 -73.230 
-6.278 -0.994 -69.240 
-6.095 -0.864 -69.477 
5.530 -3.950 -67.144 
5.806 -3.799 -67.447 
-13.330 11.190 -68.232 
-13.461 11.507 -68.406 
0.718 6.386 -63.326 
0.721 6.527 -63.382 
-1.257 12.358 -64.982 
-1.241 12.542 -64.906 
15.358 3.154 -68.466 
15.490 3.225 -68.531 
-0.133 -3.246 -67.423 
-0.035 -3.164 -67.664 
-3.441 6.625 -61.957 
-3.427 6.894 -61.930 
-10.044 11.721 -70.764 
-9.964 11.876 -70.839 
-7.389 4.745 -70.109 
-7.243 4.983 -70.184 
-15.688 9.283 -73.389 
-15.672 9.186 -73.291 
-1.680 -4.355 -62.210 
-1.419 -4.234 -62.754 
16.107 8.019 -68.218 
16.307 8.197 -68.355 
-1.018 -9.364 -69.106 
-0.813 -9.328 -69.068 
2.771 5.437 -69.531 
2.829 5.660 -69.514 
-3.178 -10.774 -68.526 
-3.014 -10.623 -68.749 
5.731 1.461 -66.671 
5.889 1.657 -66.817 
-10.230 7.726 -64.523 
-10.320 8.097 -64.552 
-9.901 12.818 -65.821 
-9.875 13.012 -65.746 
-1.201 7.371 -64.750 
-1.211 7.570 -64.641 
3.228 5.389 -66.653 
3.281 5.477 -66.821 
4.595 -10.559 -66.053 
4.870 -10.442 -66.197 
8.118 4.877 -65.496 
8.195 5.186 -65.586 
-1.641 10.167 -66.095 
-1.608 10.447 -65.969 
-2.451 -6.385 -67.960 
-2.121 -6.150 -68.009 
-1.823 -12.650 -67.267 
-1.781 -12.514 -67.343 
-7.046 -5.215 -65.500 
-6.837 -5.113 -65.817 
-0.716 -10.097 -67.046 
-0.535 -10.021 -67.201 
-9.869 -5.605 -77.633 
-9.820 -5.426 -77.350 
-8.205 -12.384 -67.819 
-8.071 -12.352 -67.974 
4.076 -12.957 -66.511 
4.195 -12.924 -66.652 
2.421 3.622 -62.584 
2.503 3.827 -62.641 
14.076 2.947 -67.634 
14.204 3.143 -67.747 
-3.601 6.885 -64.440 
-3.660 7.129 -64.348 
-12.460 -6.187 -73.002 
-12.394 -6.105 -73.296 
-9.975 -3.064 -72.948 
-9.886 -2.809 -73.044 
10.142 -6.124 -64.919 
10.272 -5.901 -65.115 
-0.564 6.692 -69.273 
-0.505 7.005 -69.319 
-1.264 3.983 -73.828 
-1.178 4.114 -73.833 
10.575 -1.567 -72.518 
10.745 -1.446 -72.585 
-3.011 8.806 -63.549 
-2.981 9.005 -63.256 
-8.901 6.955 -74.357 
-8.828 7.058 -74.440 
-13.018 -8.460 -66.394 
-12.972 -8.421 -66.750 
-3.372 -5.876 -69.225 
-3.217 -5.639 -69.170 
-4.497 11.706 -74.207 
-4.553 11.827 -74.258 
-10.094 -8.680 -68.118 
-10.038 -8.618 -68.235 
5.722 -8.409 -69.671 
5.830 -8.263 -69.972 
-0.015 -10.313 -65.349 
0.159 -10.276 -65.447 
-6.656 -0.301 -75.507 
-6.575 -0.118 -75.660 
0.561 9.225 -63.586 
0.593 9.383 -63.455 
8.869 2.627 -63.242 
8.990 2.951 -63.300 
-0.168 -11.233 -65.407 
0.054 -11.141 -65.402 
-2.309 -7.221 -66.198 
-2.157 -7.176 -66.439 
-3.973 -7.806 -67.431 
-3.847 -7.815 -67.691 
-15.079 5.993 -72.750 
-15.082 6.052 -72.827 
-8.298 -7.726 -67.414 
-8.174 -7.572 -67.552 
-12.804 -7.744 -68.211 
-12.718 -7.630 -68.437 
-4.576 10.997 -64.072 
-4.530 11.254 -63.781 
7.000 12.606 -69.650 
6.769 12.608 -69.834 
-8.315 -5.724 -65.291 
-8.128 -5.578 -65.674 
6.508 -1.897 -65.797 
6.860 -1.661 -66.098 
9.533 -2.405 -71.112 
9.579 -2.256 -71.325 
-10.483 0.997 -72.871 
-10.433 1.161 -73.047 
4.435 8.348 -64.827 
4.592 8.553 -64.619 
5.687 -5.802 -62.944 
5.872 -5.626 -63.196 
-8.569 -8.043 -67.916 
-8.540 -7.913 -68.039 
6.205 11.118 -72.194 
6.150 11.159 -72.275 
12.046 -6.530 -65.908 
12.134 -6.366 -65.886 
-3.595 4.701 -62.138 
-3.626 4.960 -62.161 
14.009 7.996 -73.815 
14.133 7.916 -74.011 
12.886 -3.704 -68.768 
12.974 -3.693 -68.716 
9.043 6.617 -61.289 
9.107 6.875 -61.428 
-10.567 -8.171 -66.684 
-10.350 -7.965 -66.755 
0.922 -4.260 -70.574 
1.280 -4.009 -70.703 
-14.013 12.205 -68.939 
-14.164 12.443 -68.965 
1.198 4.423 -76.559 
1.253 4.631 -76.556 
3.252 -9.296 -64.299 
3.393 -9.234 -64.429 
-5.421 -0.258 -70.079 
-5.374 -0.014 -70.143 
-13.412 -1.430 -65.474 
-13.348 -1.156 -65.942 
12.681 6.272 -68.183 
12.822 6.316 -68.285 
0.258 -11.705 -68.282 
0.405 -11.623 -68.337 
3.399 12.447 -70.089 
3.228 12.680 -70.096 
12.561 0.686 -67.071 
12.653 0.850 -67.084 
-5.387 2.975 -63.502 
-5.402 3.182 -63.585 
-8.345 2.906 -63.908 
-8.284 3.037 -63.944 
-3.557 -12.530 -72.525 
-3.386 -12.402 -72.573 
-10.137 5.768 -62.597 
-10.218 6.051 -62.598 
4.670 1.833 -62.386 
4.852 1.981 -62.459 
1.841 -3.845 -67.992 
2.021 -3.794 -68.074 
10.717 -5.897 -64.430 
10.913 -5.641 -64.427 
7.957 -2.647 -68.448 
8.119 -2.415 -68.821 
-10.842 -3.549 -72.514 
-10.745 -3.260 -72.597 
-7.830 1.876 -63.560 
-7.869 2.006 -63.614 
-8.035 -5.778 -69.489 
-8.017 -5.717 -69.703 
-7.390 0.878 -75.317 
-7.294 0.992 -75.420 
-11.273 -5.687 -65.858 
-11.087 -5.580 -65.804 
9.956 -4.248 -67.762 
10.129 -4.073 -67.961 
9.909 -8.209 -70.067 
9.957 -8.130 -70.122 
14.000 -4.779 -64.797 
14.061 -4.593 -64.713 
16.112 8.135 -71.574 
16.282 8.334 -71.790 
-12.649 7.582 -72.829 
-12.634 7.645 -72.955 
-2.235 -4.369 -61.709 
-2.028 -4.178 -62.205 
1.134 -4.666 -66.143 
1.323 -4.406 -66.337 
-8.259 6.296 -61.111 
-8.350 6.432 -61.211 
10.691 6.166 -62.724 
10.779 6.389 -62.755 
-11.754 6.017 -71.013 
-11.776 6.261 -70.905 
1.499 -12.716 -68.414 
1.662 -12.668 -68.446 
11.703 7.435 -70.439 
11.660 7.248 -70.587 
15.093 7.758 -71.527 
15.256 7.850 -71.683 
-8.402 4.913 -68.745 
-8.328 5.250 -68.740 
5.630 -11.985 -68.008 
5.691 -11.944 -68.279 
-5.650 -9.876 -75.362 
-5.475 -9.656 -75.409 
5.414 9.054 -74.286 
[...]
POINT_DATA 1024 
SCALARS Umean double 1 
LOOKUP_TABLE default
0.09724 
0.09724 
0.16274 
0.16274 
0.15715 
0.15715 
0.14011 
0.14011 
0.08755 
0.08755 
0.16872 
0.16872 
0.14984 
0.14984 
0.10043 
0.10043 
0.19818 
0.19818 
0.16237 
0.16237 
0.16975 
0.16975 
0.12905 
0.12905 
0.10626 
0.10626 
0.20689 
0.20689 
0.19395 
0.19395 
0.12965 
0.12965 
0.12801 
0.12801 
0.08686 
0.08686 
0.18122 
0.18122 
0.15141 
0.15141 
0.18014 
0.18014 
0.11532 
0.11532 
0.07243 
0.07243 
0.16496 
0.16496 
0.08593 
0.08593 
0.13897 
0.13897 
0.13808 
0.13808 
0.07423 
0.07423 
0.10461 
0.10461 
0.04680 
0.04680 
0.16889 
0.16889 
0.18240 
0.18240 
0.11911 
0.11911 
0.12816 
0.12816 
0.07790 
0.07790 
0.25325 
0.25325 
0.12206 
0.12206 
0.11266 
0.11266 
0.11868 
0.11868 
0.16506 
0.16506 
0.19025 
0.19025 
0.08073 
0.08073 
0.09343 
0.09343 
0.10728 
0.10728 
0.19361 
0.19361 
0.11942 
0.11942 
0.18414 
0.18414 
0.11974 
0.11974 
0.08056 
0.08056 
0.12841 
0.12841 
0.12850 
0.12850 
0.13937 
0.13937 
0.07783 
0.07783 
0.12074 
0.12074 
0.15900 
0.15900 
0.10412 
0.10412 
0.19941 
0.19941 
0.17535 
0.17535 
0.22530 
0.22530 
0.10462 
0.10462 
0.13029 
0.13029 
0.08443 
0.08443 
0.13152 
0.13152 
0.09155 
0.09155 
0.10054 
0.10054 
0.22919 
0.22919 
0.08431 
0.08431 
0.13386 
0.13386 
0.16501 
0.16501 
0.16081 
0.16081 
0.09553 
0.09553 
0.10213 
0.10213 
0.12999 
0.12999 
0.16386 
0.16386 
0.15131 
0.15131 
0.10725 
0.10725 
0.12203 
0.12203 
0.09734 
0.09734 
0.10852 
0.10852 
0.13177 
0.13177 
0.12260 
0.12260 
0.08554 
0.08554 
0.15135 
0.15135 
0.05098 
0.05098 
0.09911 
0.09911 
0.09734 
0.09734 
0.11286 
0.11286 
0.06981 
0.06981 
0.17343 
0.17343 
0.08969 
0.08969 
0.18126 
0.18126 
0.22159 
0.22159 
0.15713 
0.15713 
0.14434 
0.14434 
0.13799 
0.13799 
0.08622 
0.08622 
0.05081 
0.05081 
0.08641 
0.08641 
0.08114 
0.08114 
0.13641 
0.13641 
0.08473 
0.08473 
0.22207 
0.22207 
0.10095 
0.10095 
0.11875 
0.11875 
0.09675 
0.09675 
0.20249 
0.20249 
0.27114 
0.27114 
0.08341 
0.08341 
0.16322 
0.16322 
0.21840 
0.21840 
0.19231 
0.19231 
0.07587 
0.07587 
0.09986 
0.09986 
0.08169 
0.08169 
0.13639 
0.13639 
0.13536 
0.13536 
0.09493 
0.09493 
0.14456 
0.14456 
0.06941 
0.06941 
0.30769 
0.30769 
0.15038 
0.15038 
0.10579 
0.10579 
0.11552 
0.11552 
0.15766 
0.15766 
0.14551 
0.14551 
0.19143 
0.19143 
0.10481 
0.10481 
0.11356 
0.11356 
0.09846 
0.09846 
0.16587 
0.16587 
0.16546 
0.16546 
0.15441 
0.15441 
0.20404 
0.20404 
0.08068 
0.08068 
0.19658 
0.19658 
0.12506 
0.12506 
0.16921 
0.16921 
0.10369 
0.10369 
0.09372 
0.09372 
0.11402 
0.11402 
0.12997 
0.12997 
0.13368 
0.13368 
0.15614 
0.15614 
0.14332 
0.14332 
0.16205 
0.16205 
0.16091 
0.16091 
0.07839 
0.07839 
0.10958 
0.10958 
0.17773 
0.17773 
0.07554 
0.07554 
0.18054 
0.18054 
0.14424 
0.14424 
0.07138 
0.07138 
0.07188 
0.07188 
0.17577 
0.17577 
0.10155 
0.10155 
0.12596 
0.12596 
0.10386 
0.10386 
0.17534 
0.17534 
0.12018 
0.12018 
0.14423 
0.14423 
0.14453 
0.14453 
0.04853 
0.04853 
0.12056 
0.12056 
0.13367 
0.13367 
0.19548 
0.19548 
0.14767 
0.14767 
0.22526 
0.22526 
0.25990 
0.25990 
0.13199 
0.13199 
0.12285 
0.12285 
0.16578 
0.16578 
0.17938 
0.17938 
0.09065 
0.09065 
0.05307 
0.05307 
0.09371 
0.09371 
0.13093 
0.13093 
0.12267 
0.12267 
0.05140 
0.05140 
0.14998 
0.14998 
0.15376 
0.15376 
0.22793 
0.22793 
0.14153 
0.14153 
0.10758 
0.10758 
0.10078 
0.10078 
0.12830 
0.12830 
0.27304 
0.27304 
0.08975 
0.08975 
0.08854 
0.08854 
0.14455 
0.14455 
0.09425 
0.09425 
0.11176 
0.11176 
0.07446 
0.07446 
0.10946 
0.10946 
0.14718 
0.14718 
0.12284 
0.12284 
0.10213 
0.10213 
0.16121 
0.16121 
0.23409 
0.23409 
0.15797 
0.15797 
0.07304 
0.07304 
0.11163 
0.11163 
0.09058 
0.09058 
0.11064 
0.11064 
0.15824 
0.15824 
0.05378 
0.05378 
0.10650 
0.10650 
0.16967 
0.16967 
0.07083 
0.07083 
0.28520 
0.28520 
0.18772 
0.18772 
0.09589 
0.09589 
0.12087 
0.12087 
0.13387 
0.13387 
0.08645 
0.08645 
0.12116 
0.12116 
0.12183 
0.12183 
0.17253 
0.17253 
0.14039 
0.14039 
0.14251 
0.14251 
0.13097 
0.13097 
0.09058 
0.09058 
0.15280 
0.15280 
0.11705 
0.11705 
0.13214 
0.13214 
0.08543 
0.08543 
0.20003 
0.20003 
0.16848 
0.16848 
0.14354 
0.14354 
0.09828 
0.09828 
0.18877 
0.18877 
0.11801 
0.11801 
0.14555 
0.14555 
0.11868 
0.11868 
0.23372 
0.23372 
0.20370 
0.20370 
0.07862 
0.07862 
0.10090 
0.10090 
0.16145 
0.16145 
0.20029 
0.20029 
0.08492 
0.08492 
0.13323 
0.13323 
0.18719 
0.18719 
0.11342 
0.11342 
0.10903 
0.10903 
0.02440 
0.02440 
0.14526 
0.14526 
0.09216 
0.09216 
0.16832 
0.16832 
0.10730 
0.10730 
0.14351 
0.14351 
0.09067 
0.09067 
0.16537 
0.16537 
0.17777 
0.17777 
0.16388 
0.16388 
0.19529 
0.19529 
0.13001 
0.13001 
0.08235 
0.08235 
0.08115 
0.08115 
0.10972 
0.10972 
0.12778 
0.12778 
0.11129 
0.11129 
0.14233 
0.14233 
0.12894 
0.12894 
0.07312 
0.07312 
0.11416 
0.11416 
0.12506 
0.12506 
0.05189 
0.05189 
0.11377 
0.11377 
0.14061 
0.14061 
0.09691 
0.09691 
0.01774 
0.01774 
0.22003 
0.22003 
0.12414 
0.12414 
0.12694 
0.12694 
0.22006 
0.22006 
0.12418 
0.12418 
0.16844 
0.16844 
0.18680 
0.18680 
0.06668 
0.06668 
0.08250 
0.08250 
0.15022 
0.15022 
0.17595 
0.17595 
0.11429 
0.11429 
0.11724 
0.11724 
0.15096 
0.15096 
0.12526 
0.12526 
0.09827 
0.09827 
0.14620 
0.14620 
0.15055 
0.15055 
0.30666 
0.30666 
0.17707 
0.17707 
0.15971 
0.15971 
0.09368 
0.09368 
0.07662 
0.07662 
0.21779 
0.21779 
0.13433 
0.13433 
0.06717 
0.06717 
0.06277 
0.06277 
0.13623 
0.13623 
0.13271 
0.13271 
0.10237 
0.10237 
0.10904 
0.10904 
0.09376 
0.09376 
0.07287 
0.07287 
0.17169 
0.17169 
0.09867 
0.09867 
0.06997 
0.06997 
0.13875 
0.13875 
0.11825 
0.11825 
0.14110 
0.14110 
0.12855 
0.12855 
0.05433 
0.05433 
0.09904 
0.09904 
0.13332 
0.13332 
0.24101 
0.24101 
0.08549 
0.08549 
0.13984 
0.13984 
0.19990 
0.19990 
0.11974 
0.11974 
0.16042 
0.16042 
0.10355 
0.10355 
0.20126 
0.20126 
0.14212 
0.14212 
0.24756 
0.24756 
0.13462 
0.13462 
0.11309 
0.11309 
0.15593 
0.15593 
0.21740 
0.21740 
0.11449 
0.11449 
0.05720 
0.05720 
0.25828 
0.25828 
0.08776 
0.08776 
0.09012 
0.09012 
0.10781 
0.10781 
0.09819 
0.09819 
0.12729 
0.12729 
0.07865 
0.07865 
0.12515 
0.12515 
0.15625 
0.15625 
0.14426 
0.14426 
0.16040 
0.16040 
0.11699 
0.11699 
0.06810 
0.06810 
0.07764 
0.07764 
0.13729 
0.13729 
0.16383 
0.16383 
0.08956 
0.08956 
0.27979 
0.27979 
0.10057 
0.10057 
0.29096 
0.29096 
0.07427 
0.07427 
0.15905 
0.15905 
0.18328 
0.18328 
0.12491 
0.12491 
0.09790 
0.09790 
0.08957 
0.08957 
0.24442 
0.24442 
0.09656 
0.09656 
0.14687 
0.14687 
0.18548 
0.18548 
0.12855 
0.12855 
0.14557 
0.14557 
0.18011 
0.18011 
0.25722 
0.25722 
0.06312 
0.06312 
0.12160 
0.12160 
0.04605 
0.04605 
0.08993 
0.08993 
0.22818 
0.22818 
0.16844 
0.16844 
0.07466 
0.07466 
0.22084 
0.22084 
0.11093 
0.11093 
0.17774 
0.17774 
0.12751 
0.12751 
0.06352 
0.06352 
0.17735 
0.17735 
0.10009 
0.10009 
0.15278 
0.15278 
0.10402 
0.10402 
0.15966 
0.15966 
0.16103 
0.16103 
0.13575 
0.13575 
0.13615 
0.13615 
0.13446 
0.13446 
0.16214 
0.16214 
0.11315 
0.11315 
0.15756 
0.15756 
0.11184 
0.11184 
0.09751 
0.09751 
0.13831 
0.13831 
0.09600 
0.09600 
0.04349 
0.04349 
0.06463 
0.06463 
0.19805 
0.19805 
0.14101 
0.14101 
0.13188 
0.13188 
0.11415 
0.11415 
0.16307 
0.16307 
0.16804 
0.16804 
0.08227 
0.08227 
0.16582 
0.16582 
0.19523 
0.19523 
0.12055 
0.12055 
0.18673 
0.18673 
0.10010 
0.10010 
0.06541 
0.06541 
0.14612 
0.14612 
0.13171 
0.13171 
0.13094 
0.13094 
0.09807 
0.09807 
0.06900 
0.06900 
0.14660 
0.14660 
0.14987 
0.14987 
0.16425 
0.16425 
0.12464 
0.12464 
0.19168 
0.19168 
0.07620 
0.07620 
0.07661 
0.07661 
0.05006 
0.05006 
0.11030 
0.11030 
0.09859 
0.09859 
0.12631 
0.12631 
0.06843 
0.06843 
0.07166 
0.07166 
0.15107 
0.15107 
0.07454 
0.07454 
0.04318 
0.04318 
0.08668 
0.08668 
0.14027 
0.14027 
0.16639 
0.16639 
0.12367 
0.12367 
0.04004 
0.04004 
0.18397 
0.18397 
0.09408 
0.09408 
0.15836 
0.15836 
0.06255 
0.06255 
0.13648 
0.13648 
0.07947 
0.07947 
0.16315 
0.16315 
0.09583 
0.09583 
0.07571 
0.07571 
0.05411 
0.05411 
0.06711 
0.06711 
0.13689 
0.13689 
0.16885 
0.16885 
0.21406 
0.21406 
0.16229 
0.16229 
0.09892 
0.09892 
0.05608 
0.05608 
0.13352 
0.13352 
0.17909 
0.17909 
0.16329 
0.16329 
0.03711 
0.03711 
0.12171 
0.12171 
0.13752 
0.13752 
0.22900 
0.22900 
0.06644 
0.06644 
0.13237 
0.13237 
0.09760 
0.09760 
0.10585 
0.10585 
0.13436 
0.13436 
0.12796 
0.12796 
0.13739 
0.13739 
0.17332 
0.17332 
0.16593 
0.16593 
0.13334 
0.13334 
0.07014 
0.07014 
0.16934 
0.16934 
0.21396 
0.21396 
0.13168 
0.13168 
0.14358 
0.14358 
0.12155 
0.12155 
0.12184 
0.12184 
0.12709 
0.12709 
0.10389 
0.10389 
0.17795 
0.17795 
0.06605 
0.06605 
0.18630 
0.18630 
0.14809 
0.14809 
0.19863 
0.19863 
0.14361 
0.14361 
0.06136 
0.06136 
0.13558 
0.13558 
0.13723 
0.13723 
0.06475 
0.06475 
0.14681 
0.14681 
0.18014 
0.18014 
0.15678 
0.15678 
0.16915 
0.16915 
0.15079 
0.15079 
0.15810 
0.15810 
0.08121 
0.08121 
0.13784 
0.13784 
0.09964 
0.09964 
0.14977 
0.14977 
0.13468 
0.13468 
0.13056 
0.13056 
0.22395 
0.22395 
0.26728 
0.26728 
0.08833 
0.08833 
0.18191 
0.18191 
0.12266 
0.12266 
0.09761 
0.09761 
0.09057 
0.09057 
0.11669 
0.11669 
0.16153 
0.16153 
0.06114 
0.06114 
0.07835 
0.07835 
0.13911 
0.13911 
0.08990 
0.08990 
SCALARS Umean_X double 1 
LOOKUP_TABLE default
-0.00050 
-0.00050 
0.07800 
0.07800 
0.04800 
0.04800 
0.05700 
0.05700 
0.02350 
0.02350 
0.09600 
0.09600 
0.08600 
0.08600 
0.01900 
0.01900 
0.04600 
0.04600 
0.06850 
0.06850 
0.05100 
0.05100 
0.05300 
0.05300 
0.00450 
0.00450 
0.07950 
0.07950 
0.14900 
0.14900 
0.00300 
0.00300 
0.05600 
0.05600 
0.03500 
0.03500 
0.12700 
0.12700 
0.05950 
0.05950 
0.10800 
0.10800 
-0.02350 
-0.02350 
0.03800 
0.03800 
0.07750 
0.07750 
0.01650 
0.01650 
0.05050 
0.05050 
-0.03000 
-0.03000 
0.02050 
0.02050 
0.01500 
0.01500 
-0.00300 
-0.00300 
0.12900 
0.12900 
0.04350 
0.04350 
0.01750 
0.01750 
0.07650 
0.07650 
0.06500 
0.06500 
0.02400 
0.02400 
0.04950 
0.04950 
-0.02550 
-0.02550 
0.00750 
0.00750 
0.08650 
0.08650 
0.05200 
0.05200 
0.00350 
0.00350 
0.03450 
0.03450 
0.01950 
0.01950 
0.11400 
0.11400 
0.00050 
0.00050 
0.06050 
0.06050 
0.03100 
0.03100 
-0.03700 
-0.03700 
-0.01000 
-0.01000 
0.02250 
0.02250 
0.06650 
0.06650 
-0.00100 
-0.00100 
0.07600 
0.07600 
0.01250 
0.01250 
0.04900 
0.04900 
0.07250 
0.07250 
0.10250 
0.10250 
0.04350 
0.04350 
0.01550 
0.01550 
0.08950 
0.08950 
-0.01150 
-0.01150 
0.10600 
0.10600 
0.00750 
0.00750 
-0.06550 
-0.06550 
0.12700 
0.12700 
-0.02650 
-0.02650 
0.10550 
0.10550 
0.02750 
0.02750 
0.07900 
0.07900 
0.06550 
0.06550 
0.00550 
0.00550 
0.10300 
0.10300 
0.08650 
0.08650 
0.03050 
0.03050 
0.04100 
0.04100 
-0.02200 
-0.02200 
-0.00200 
-0.00200 
-0.03900 
-0.03900 
0.05600 
0.05600 
0.03050 
0.03050 
0.04500 
0.04500 
0.05900 
0.05900 
-0.04400 
-0.04400 
0.06250 
0.06250 
-0.02300 
-0.02300 
-0.01750 
-0.01750 
0.04700 
0.04700 
0.08200 
0.08200 
0.02450 
0.02450 
0.06250 
0.06250 
0.08600 
0.08600 
0.10600 
0.10600 
0.01500 
0.01500 
0.06900 
0.06900 
0.05300 
0.05300 
-0.01700 
-0.01700 
0.02000 
0.02000 
0.00300 
0.00300 
-0.01550 
-0.01550 
0.00850 
0.00850 
0.11500 
0.11500 
0.04600 
0.04600 
0.00300 
0.00300 
0.02200 
0.02200 
0.17450 
0.17450 
0.17900 
0.17900 
0.01400 
0.01400 
0.09150 
0.09150 
0.13800 
0.13800 
-0.06550 
-0.06550 
0.00150 
0.00150 
0.00800 
0.00800 
0.06600 
0.06600 
0.04900 
0.04900 
0.00700 
0.00700 
0.04000 
0.04000 
0.07300 
0.07300 
0.00800 
0.00800 
0.13050 
0.13050 
0.10000 
0.10000 
0.10250 
0.10250 
0.02900 
0.02900 
0.08200 
0.08200 
0.07900 
0.07900 
-0.04500 
-0.04500 
0.01300 
0.01300 
-0.00500 
-0.00500 
0.02650 
0.02650 
0.13750 
0.13750 
0.03850 
0.03850 
0.01650 
0.01650 
0.16500 
0.16500 
0.02100 
0.02100 
0.10450 
0.10450 
0.09050 
0.09050 
0.02450 
0.02450 
0.06700 
0.06700 
0.05950 
0.05950 
0.04100 
0.04100 
0.06400 
0.06400 
-0.02950 
-0.02950 
0.03300 
0.03300 
0.04450 
0.04450 
0.06500 
0.06500 
0.02950 
0.02950 
0.04300 
0.04300 
0.08500 
0.08500 
0.01500 
0.01500 
0.03650 
0.03650 
0.02300 
0.02300 
0.07750 
0.07750 
-0.02800 
-0.02800 
0.02800 
0.02800 
0.05400 
0.05400 
0.08700 
0.08700 
0.04050 
0.04050 
0.01600 
0.01600 
0.06050 
0.06050 
0.11100 
0.11100 
0.07600 
0.07600 
0.06300 
0.06300 
-0.00150 
-0.00150 
0.06200 
0.06200 
0.04300 
0.04300 
0.02300 
0.02300 
-0.11550 
-0.11550 
0.09350 
0.09350 
0.17600 
0.17600 
0.02300 
0.02300 
0.02500 
0.02500 
0.07850 
0.07850 
0.09250 
0.09250 
0.01450 
0.01450 
-0.02750 
-0.02750 
0.04400 
0.04400 
-0.01550 
-0.01550 
0.06200 
0.06200 
0.04400 
0.04400 
0.03200 
0.03200 
0.10850 
0.10850 
0.17900 
0.17900 
-0.07550 
-0.07550 
0.02750 
0.02750 
0.07050 
0.07050 
0.02350 
0.02350 
0.03200 
0.03200 
0.07050 
0.07050 
0.07350 
0.07350 
-0.08550 
-0.08550 
0.04600 
0.04600 
-0.00750 
-0.00750 
0.03050 
0.03050 
0.08550 
0.08550 
-0.04050 
-0.04050 
0.09100 
0.09100 
0.09000 
0.09000 
0.09800 
0.09800 
0.08100 
0.08100 
0.04850 
0.04850 
-0.01950 
-0.01950 
0.00900 
0.00900 
0.04800 
0.04800 
0.09300 
0.09300 
0.08650 
0.08650 
0.02400 
0.02400 
0.03050 
0.03050 
0.08500 
0.08500 
0.00750 
0.00750 
0.10350 
0.10350 
0.09450 
0.09450 
-0.04550 
-0.04550 
0.04400 
0.04400 
-0.01100 
-0.01100 
0.08150 
0.08150 
-0.02150 
-0.02150 
0.08150 
0.08150 
0.03700 
0.03700 
0.03050 
0.03050 
0.08750 
0.08750 
-0.06500 
-0.06500 
0.01950 
0.01950 
0.13000 
0.13000 
0.00300 
0.00300 
0.09200 
0.09200 
0.03500 
0.03500 
0.10650 
0.10650 
0.09250 
0.09250 
0.08350 
0.08350 
0.01000 
0.01000 
0.00350 
0.00350 
0.01450 
0.01450 
0.08250 
0.08250 
0.07450 
0.07450 
0.17700 
0.17700 
0.06450 
0.06450 
0.06150 
0.06150 
0.08750 
0.08750 
0.00900 
0.00900 
0.02550 
0.02550 
0.06450 
0.06450 
-0.01950 
-0.01950 
-0.01700 
-0.01700 
0.09050 
0.09050 
0.04650 
0.04650 
-0.00900 
-0.00900 
0.02400 
0.02400 
0.08850 
0.08850 
0.09950 
0.09950 
0.05550 
0.05550 
-0.01250 
-0.01250 
0.08950 
0.08950 
0.06200 
0.06200 
0.12650 
0.12650 
0.02950 
0.02950 
0.02550 
0.02550 
0.00450 
0.00450 
0.00350 
0.00350 
0.00650 
0.00650 
0.07900 
0.07900 
0.06000 
0.06000 
0.04000 
0.04000 
0.06900 
0.06900 
0.07400 
0.07400 
0.03900 
0.03900 
0.00300 
0.00300 
0.01150 
0.01150 
0.00100 
0.00100 
0.05450 
0.05450 
0.02100 
0.02100 
0.04400 
0.04400 
-0.00150 
-0.00150 
0.07250 
0.07250 
0.03100 
0.03100 
0.04350 
0.04350 
0.08000 
0.08000 
0.07550 
0.07550 
0.05750 
0.05750 
0.07650 
0.07650 
0.04750 
0.04750 
0.00900 
0.00900 
-0.00200 
-0.00200 
0.03450 
0.03450 
0.05050 
0.05050 
-0.07200 
-0.07200 
0.08100 
0.08100 
0.01300 
0.01300 
0.03600 
0.03600 
0.06900 
0.06900 
0.05550 
0.05550 
0.08050 
0.08050 
0.05950 
0.05950 
0.08600 
0.08600 
-0.00050 
-0.00050 
-0.05550 
-0.05550 
0.01400 
0.01400 
0.11250 
0.11250 
-0.04050 
-0.04050 
0.01550 
0.01550 
-0.06350 
-0.06350 
0.00750 
0.00750 
0.06150 
0.06150 
0.01000 
0.01000 
0.02400 
0.02400 
0.03550 
0.03550 
0.00800 
0.00800 
0.03450 
0.03450 
0.00950 
0.00950 
0.02300 
0.02300 
0.06650 
0.06650 
0.04750 
0.04750 
0.06000 
0.06000 
0.04250 
0.04250 
0.02850 
0.02850 
0.07350 
0.07350 
0.04000 
0.04000 
0.07900 
0.07900 
-0.04050 
-0.04050 
0.03900 
0.03900 
0.00950 
0.00950 
0.07200 
0.07200 
0.05450 
0.05450 
0.00800 
0.00800 
0.08850 
0.08850 
0.08850 
0.08850 
-0.00350 
-0.00350 
0.04450 
0.04450 
0.06700 
0.06700 
0.15150 
0.15150 
0.05000 
0.05000 
0.02700 
0.02700 
0.17400 
0.17400 
0.08100 
0.08100 
0.03650 
0.03650 
0.02650 
0.02650 
0.06450 
0.06450 
0.07550 
0.07550 
-0.03050 
-0.03050 
-0.05350 
-0.05350 
0.09800 
0.09800 
-0.00100 
-0.00100 
0.10200 
0.10200 
0.07400 
0.07400 
-0.01500 
-0.01500 
0.06600 
0.06600 
0.05300 
0.05300 
0.07800 
0.07800 
-0.00850 
-0.00850 
0.10500 
0.10500 
0.02900 
0.02900 
0.18000 
0.18000 
0.03500 
0.03500 
0.05200 
0.05200 
0.10300 
0.10300 
0.03550 
0.03550 
0.03500 
0.03500 
0.04550 
0.04550 
0.12500 
0.12500 
0.02900 
0.02900 
0.06550 
0.06550 
0.03700 
0.03700 
0.02950 
0.02950 
0.01400 
0.01400 
0.06250 
0.06250 
0.08650 
0.08650 
0.04850 
0.04850 
0.09900 
0.09900 
0.00400 
0.00400 
-0.00950 
-0.00950 
0.11000 
0.11000 
0.09350 
0.09350 
0.00750 
0.00750 
0.08000 
0.08000 
-0.09000 
-0.09000 
0.04500 
0.04500 
0.05500 
0.05500 
0.00650 
0.00650 
0.14400 
0.14400 
-0.00750 
-0.00750 
0.06000 
0.06000 
0.07050 
0.07050 
0.12400 
0.12400 
0.12750 
0.12750 
0.04800 
0.04800 
0.06450 
0.06450 
0.13150 
0.13150 
0.11700 
0.11700 
-0.03150 
-0.03150 
0.03600 
0.03600 
0.01400 
0.01400 
0.02900 
0.02900 
0.01300 
0.01300 
0.04950 
0.04950 
0.00900 
0.00900 
-0.03900 
-0.03900 
0.02650 
0.02650 
-0.05000 
-0.05000 
0.09300 
0.09300 
0.09500 
0.09500 
0.08950 
0.08950 
0.07400 
0.07400 
-0.05750 
-0.05750 
0.10900 
0.10900 
-0.07200 
-0.07200 
0.07450 
0.07450 
0.07100 
0.07100 
0.04900 
0.04900 
0.04150 
0.04150 
0.03000 
0.03000 
0.11400 
0.11400 
0.06900 
0.06900 
0.06550 
0.06550 
-0.03900 
-0.03900 
-0.02550 
-0.02550 
0.05300 
0.05300 
0.04400 
0.04400 
-0.01950 
-0.01950 
0.02600 
0.02600 
0.01750 
0.01750 
0.01200 
0.01200 
0.03800 
0.03800 
-0.00650 
-0.00650 
0.08850 
0.08850 
-0.04050 
-0.04050 
0.01950 
0.01950 
0.04250 
0.04250 
0.00450 
0.00450 
0.06050 
0.06050 
0.03750 
0.03750 
-0.02800 
-0.02800 
0.10650 
0.10650 
0.11700 
0.11700 
0.04450 
0.04450 
0.02700 
0.02700 
0.12800 
0.12800 
0.00700 
0.00700 
0.03800 
0.03800 
0.02050 
0.02050 
0.09550 
0.09550 
0.05150 
0.05150 
0.13050 
0.13050 
0.07150 
0.07150 
-0.02350 
-0.02350 
0.05250 
0.05250 
-0.01200 
-0.01200 
-0.03350 
-0.03350 
0.04500 
0.04500 
-0.05850 
-0.05850 
0.05800 
0.05800 
0.06200 
0.06200 
0.03500 
0.03500 
0.02800 
0.02800 
0.11850 
0.11850 
0.07750 
0.07750 
0.00850 
0.00850 
-0.04350 
-0.04350 
-0.01800 
-0.01800 
0.10650 
0.10650 
0.05700 
0.05700 
0.03200 
0.03200 
-0.02800 
-0.02800 
0.01950 
0.01950 
-0.01950 
-0.01950 
0.01700 
0.01700 
-0.05500 
-0.05500 
0.07400 
0.07400 
0.11500 
0.11500 
0.07600 
0.07600 
0.04300 
0.04300 
0.07200 
0.07200 
0.13250 
0.13250 
0.07800 
0.07800 
-0.00800 
-0.00800 
0.06850 
0.06850 
0.02100 
0.02100 
0.07200 
0.07200 
0.08800 
0.08800 
0.04500 
0.04500 
0.01050 
0.01050 
-0.00350 
-0.00350 
0.10300 
0.10300 
0.07050 
0.07050 
-0.01050 
-0.01050 
0.05100 
0.05100 
0.01150 
0.01150 
0.04250 
0.04250 
-0.00450 
-0.00450 
0.03100 
0.03100 
-0.08550 
-0.08550 
0.03450 
0.03450 
0.04500 
0.04500 
0.06900 
0.06900 
0.12300 
0.12300 
0.05300 
0.05300 
0.09150 
0.09150 
-0.04900 
-0.04900 
0.00950 
0.00950 
0.01450 
0.01450 
0.03950 
0.03950 
0.11900 
0.11900 
-0.00900 
-0.00900 
0.05700 
0.05700 
0.04350 
0.04350 
0.04850 
0.04850 
0.02750 
0.02750 
0.04150 
0.04150 
0.02950 
0.02950 
0.01150 
0.01150 
0.02600 
0.02600 
0.07550 
0.07550 
0.12150 
0.12150 
0.04550 
0.04550 
SCALARS Umean_Y double 1 
LOOKUP_TABLE default
0.09200 
0.09200 
0.08800 
0.08800 
0.14700 
0.14700 
0.11650 
0.11650 
0.08100 
0.08100 
0.11950 
0.11950 
0.08500 
0.08500 
0.09800 
0.09800 
0.16450 
0.16450 
0.09000 
0.09000 
0.10350 
0.10350 
0.11650 
0.11650 
0.10600 
0.10600 
0.11950 
0.11950 
0.11450 
0.11450 
0.12850 
0.12850 
0.07050 
0.07050 
0.07950 
0.07950 
0.10600 
0.10600 
0.08600 
0.08600 
0.11100 
0.11100 
0.11250 
0.11250 
0.05850 
0.05850 
0.06850 
0.06850 
0.06600 
0.06600 
0.08100 
0.08100 
0.13400 
0.13400 
0.07100 
0.07100 
0.10350 
0.10350 
0.04500 
0.04500 
0.09000 
0.09000 
0.12400 
0.12400 
0.11250 
0.11250 
0.07800 
0.07800 
0.03800 
0.03800 
0.14950 
0.14950 
0.10800 
0.10800 
0.10400 
0.10400 
0.07700 
0.07700 
0.13000 
0.13000 
0.14550 
0.14550 
0.07700 
0.07700 
0.05700 
0.05700 
0.09150 
0.09150 
0.13450 
0.13450 
-0.05500 
-0.05500 
0.13750 
0.13750 
0.11550 
0.11550 
0.06000 
0.06000 
0.12800 
0.12800 
0.12200 
0.12200 
0.10650 
0.10650 
0.06350 
0.06350 
-0.08600 
-0.08600 
0.13250 
0.13250 
0.05950 
0.05950 
0.09850 
0.09850 
0.01900 
0.01900 
0.16900 
0.16900 
0.09500 
0.09500 
0.03850 
0.03850 
0.08200 
0.08200 
-0.06050 
-0.06050 
0.06600 
0.06600 
0.06400 
0.06400 
0.08150 
0.08150 
0.05000 
0.05000 
0.05750 
0.05750 
0.13350 