# vtk DataFile Version 2.1 
Trajects from timestep 152 with color option 
ASCII 
 
DATASET POLYDATA POINTS 968 float 
5.588 6.334 -70.611 
5.696 6.431 -70.814 
-6.752 7.153 -70.516 
-6.765 7.370 -70.827 
-6.716 -4.818 -72.718 
-6.769 -4.684 -72.840 
-0.629 6.990 -68.421 
-0.640 7.123 -68.502 
2.149 4.453 -72.216 
2.166 4.705 -72.648 
-8.593 -4.123 -72.804 
-8.582 -4.069 -73.017 
1.617 5.701 -70.719 
1.572 5.798 -70.967 
7.591 3.237 -70.204 
7.916 3.359 -70.528 
1.167 6.218 -74.498 
1.163 6.426 -74.613 
3.751 0.423 -73.416 
3.875 0.593 -73.701 
14.089 0.881 -71.217 
14.225 1.090 -71.255 
-8.955 0.337 -72.449 
-8.845 0.619 -72.649 
-7.662 5.151 -70.839 
-7.569 5.422 -71.181 
-4.103 6.668 -67.348 
-4.170 6.812 -67.402 
3.958 5.435 -71.504 
4.065 5.644 -71.731 
5.409 -0.663 -69.036 
5.617 -0.448 -69.364 
0.151 3.424 -70.581 
0.260 3.593 -70.975 
2.602 7.299 -73.322 
2.741 7.390 -73.361 
-2.221 5.623 -70.553 
-2.217 5.908 -70.735 
-0.651 7.764 -68.040 
-0.715 7.856 -68.021 
-9.675 4.294 -68.613 
-9.595 4.501 -68.872 
0.719 1.708 -71.959 
0.837 1.935 -72.326 
-10.643 5.570 -75.704 
-10.503 5.745 -75.802 
0.030 4.444 -69.052 
0.120 4.614 -69.404 
-6.926 2.904 -72.918 
-6.870 3.094 -73.304 
-8.004 4.548 -74.063 
-7.947 4.746 -74.357 
3.799 5.310 -69.043 
3.884 5.507 -69.338 
-2.491 -9.396 -72.698 
-2.334 -9.301 -72.823 
3.152 -1.139 -69.831 
3.383 -0.898 -70.030 
-7.048 3.621 -69.386 
-6.905 3.978 -69.624 
10.997 4.003 -71.965 
11.165 4.117 -72.366 
13.875 3.135 -70.527 
13.855 3.460 -70.626 
-13.386 7.560 -68.282 
-13.474 7.798 -68.481 
5.475 -7.538 -70.273 
5.670 -7.421 -70.541 
5.982 -2.807 -72.862 
6.098 -2.651 -73.416 
11.841 -2.564 -68.233 
12.009 -2.422 -68.416 
-0.480 9.939 -72.061 
-0.493 10.057 -72.033 
12.027 0.678 -68.141 
11.949 0.843 -68.342 
-0.569 -2.011 -67.164 
-0.328 -1.590 -67.527 
11.631 11.876 -69.225 
11.764 11.642 -69.201 
-5.913 10.740 -64.709 
-6.032 10.879 -64.631 
-2.022 4.563 -68.818 
-1.814 4.721 -69.150 
-0.001 4.939 -64.583 
0.134 5.072 -64.830 
-2.595 2.932 -65.587 
-2.356 3.161 -66.000 
-3.946 1.535 -69.716 
-3.766 1.819 -70.006 
-3.238 1.355 -67.163 
-3.126 1.593 -67.416 
-8.506 -1.186 -67.709 
-8.389 -0.864 -68.008 
-7.688 7.867 -69.131 
-7.714 8.029 -69.304 
4.389 2.213 -65.510 
4.446 2.407 -65.934 
-2.720 -8.422 -67.665 
-2.826 -8.453 -67.836 
-5.614 -8.460 -72.031 
-5.595 -8.310 -72.395 
-12.682 -2.848 -74.427 
-12.707 -2.639 -74.607 
-0.684 7.921 -72.858 
-0.589 8.108 -72.897 
16.057 2.017 -68.402 
16.141 2.257 -68.455 
-4.686 9.995 -64.965 
-4.787 10.167 -64.969 
-7.983 -3.154 -67.544 
-7.869 -2.890 -67.898 
7.691 7.627 -69.234 
7.790 7.601 -69.292 
-8.440 9.826 -65.515 
-8.475 9.964 -65.661 
-8.655 7.064 -70.848 
-8.686 7.320 -71.123 
-7.932 -3.506 -73.371 
-7.943 -3.342 -73.404 
-5.562 -3.404 -66.642 
-5.460 -3.168 -67.213 
-7.841 7.988 -71.780 
-7.812 8.311 -72.093 
9.705 -0.786 -69.112 
9.844 -0.836 -69.417 
-2.854 0.048 -65.815 
-2.805 0.265 -66.013 
-8.050 -5.569 -70.316 
-7.961 -5.456 -70.572 
2.544 -8.982 -68.485 
2.762 -8.805 -68.563 
1.404 3.741 -67.399 
1.488 3.825 -67.704 
-5.000 5.701 -67.021 
-4.969 5.876 -67.247 
-11.141 7.202 -74.041 
-11.080 7.502 -74.235 
1.107 8.547 -72.658 
1.131 8.744 -72.760 
15.872 3.296 -69.553 
15.935 3.462 -69.584 
9.425 -0.085 -71.118 
9.636 -0.104 -71.507 
-2.243 -5.716 -67.579 
-2.041 -5.529 -68.026 
1.183 6.243 -70.514 
1.203 6.248 -70.654 
-1.422 0.868 -74.313 
-1.191 1.017 -74.671 
12.593 8.982 -70.856 
12.768 9.114 -71.064 
0.904 0.335 -75.485 
1.142 0.455 -75.779 
3.856 -10.744 -69.517 
3.992 -10.650 -69.695 
-4.885 4.502 -62.744 
-4.631 4.800 -62.907 
-14.306 -5.532 -72.403 
-14.186 -5.235 -72.748 
-8.735 8.509 -71.226 
-8.694 8.742 -71.408 
6.708 -2.028 -68.764 
7.012 -1.778 -69.337 
-11.250 7.013 -69.226 
-11.268 7.164 -69.491 
5.809 1.788 -62.852 
5.741 2.088 -63.188 
5.676 3.656 -72.359 
5.835 3.718 -72.691 
11.462 7.830 -68.475 
11.490 8.000 -68.562 
-13.223 -0.758 -68.289 
-12.991 -0.543 -68.447 
-1.766 12.176 -69.035 
-1.851 12.441 -68.975 
-8.295 8.003 -65.158 
-8.370 8.120 -65.282 
-4.215 4.631 -62.537 
-3.987 4.746 -62.632 
12.453 -3.229 -68.989 
12.618 -3.079 -69.212 
-10.233 11.294 -77.106 
-10.270 11.553 -77.238 
9.703 -13.076 -67.942 
9.813 -13.098 -68.041 
5.863 -5.383 -65.541 
6.052 -5.260 -65.905 
3.168 -5.881 -66.822 
3.334 -5.869 -67.234 
1.088 7.083 -61.807 
1.296 7.258 -61.948 
-4.688 11.372 -69.454 
-4.774 11.507 -69.339 
3.256 -3.894 -66.621 
3.442 -3.664 -66.993 
14.468 -4.471 -67.822 
14.643 -4.431 -68.060 
8.144 -12.836 -70.437 
8.272 -12.665 -70.638 
4.580 10.721 -67.967 
4.531 10.721 -67.821 
10.061 9.442 -67.684 
10.056 9.439 -67.721 
0.483 9.551 -71.114 
0.514 9.712 -71.116 
7.107 1.897 -64.885 
7.092 1.996 -65.257 
3.301 -9.829 -62.625 
3.338 -9.768 -62.642 
3.894 -2.953 -65.525 
4.068 -2.933 -65.824 
14.126 4.683 -66.712 
14.207 4.860 -66.880 
10.731 12.062 -69.054 
10.849 11.975 -69.048 
12.768 4.605 -67.667 
12.812 4.784 -67.671 
0.997 -5.562 -75.644 
1.171 -5.431 -75.779 
9.254 10.213 -68.369 
9.372 10.158 -68.368 
-0.528 12.826 -66.517 
-0.609 12.908 -66.426 
-7.190 -12.123 -67.275 
-7.101 -11.951 -67.365 
-1.249 -7.778 -69.363 
-1.110 -7.739 -69.582 
-2.716 -4.881 -70.944 
-2.565 -4.590 -71.046 
9.306 -3.383 -70.506 
9.391 -3.246 -70.866 
0.574 10.506 -71.259 
0.497 10.617 -71.296 
-14.859 -10.340 -74.768 
-14.752 -10.167 -74.714 
-2.447 -11.510 -64.157 
-2.358 -11.555 -64.364 
13.869 8.163 -69.466 
13.941 8.308 -69.702 
2.521 -9.680 -69.368 
2.666 -9.551 -69.327 
-11.924 -7.150 -71.346 
-11.910 -7.087 -71.425 
-2.922 -12.429 -68.741 
-2.759 -12.402 -68.865 
0.521 2.485 -72.751 
0.683 2.683 -73.165 
9.209 -0.586 -63.901 
9.294 -0.397 -64.235 
-4.086 -1.385 -63.784 
-3.835 -1.219 -64.158 
-2.693 -3.054 -61.163 
-2.523 -2.871 -61.715 
8.250 1.987 -68.387 
8.460 2.144 -68.759 
2.070 -1.307 -70.868 
2.347 -1.038 -70.928 
8.505 6.848 -63.627 
8.669 6.948 -63.678 
3.740 5.981 -65.512 
3.851 6.176 -65.771 
-11.264 -2.843 -74.275 
-11.253 -2.638 -74.496 
-4.620 12.237 -65.781 
-4.736 12.376 -65.686 
8.481 8.065 -73.728 
8.628 8.182 -73.907 
-5.611 10.100 -62.048 
-5.630 10.370 -62.035 
-8.573 1.997 -73.134 
-8.360 2.163 -73.332 
5.980 -4.147 -77.487 
6.140 -4.114 -77.654 
0.554 -3.314 -68.848 
0.839 -3.012 -69.172 
7.676 11.357 -68.629 
7.614 11.136 -68.818 
12.443 2.144 -67.422 
12.490 2.212 -67.458 
3.720 -11.074 -64.029 
3.725 -10.987 -63.945 
-12.535 5.912 -65.313 
-12.473 6.184 -65.407 
1.898 12.708 -64.463 
1.788 12.866 -64.479 
16.594 -0.671 -68.716 
16.539 -0.425 -68.722 
6.611 -7.457 -70.646 
6.812 -7.367 -70.996 
3.553 -8.425 -75.179 
3.679 -8.310 -75.296 
3.218 5.308 -65.324 
3.296 5.365 -65.618 
-12.431 11.298 -66.739 
-12.282 11.451 -66.753 
13.272 2.635 -67.279 
13.335 2.814 -67.420 
-4.079 -12.102 -75.172 
-3.952 -11.914 -75.216 
4.459 5.287 -69.349 
4.588 5.398 -69.614 
-10.648 -9.922 -69.773 
-10.391 -9.706 -69.864 
4.134 -8.838 -61.737 
4.078 -8.733 -61.815 
-2.831 -2.317 -69.649 
-2.794 -2.013 -69.993 
7.719 10.308 -71.982 
7.818 10.302 -72.153 
1.690 2.607 -61.662 
1.715 2.694 -61.936 
2.855 10.586 -67.959 
2.764 10.592 -67.828 
-7.271 -5.672 -73.703 
-7.106 -5.552 -73.937 
0.101 -11.183 -74.981 
0.474 -11.001 -75.142 
-11.396 3.261 -66.268 
-11.179 3.403 -66.338 
10.236 -12.721 -67.033 
10.265 -12.723 -67.264 
-3.436 8.245 -64.500 
-3.511 8.372 -64.656 
0.743 3.510 -68.670 
0.892 3.663 -69.007 
-2.058 5.649 -66.275 
-1.902 5.784 -66.477 
-9.298 -7.762 -73.281 
-9.265 -7.636 -73.446 
10.660 -2.005 -66.522 
10.846 -2.014 -66.827 
-15.162 -2.983 -72.525 
-15.056 -2.675 -72.759 
-10.518 -0.436 -65.234 
-10.317 -0.239 -65.290 
-5.374 -5.260 -66.413 
-5.119 -5.062 -66.972 
-8.682 12.043 -64.650 
-8.736 12.260 -64.692 
-2.769 -7.062 -67.633 
-2.831 -6.792 -68.075 
16.775 12.208 -72.338 
16.918 12.277 -72.560 
2.322 10.163 -63.555 
2.241 10.337 -63.594 
6.865 12.511 -65.333 
6.777 12.476 -65.248 
6.812 0.110 -72.699 
7.004 0.261 -73.169 
-10.194 10.185 -68.698 
-10.102 10.287 -68.739 
-5.381 -7.470 -69.683 
-5.179 -7.407 -70.159 
4.810 -1.816 -65.550 
4.911 -1.850 -65.886 
-6.893 5.467 -72.678 
-6.836 5.693 -73.014 
-4.048 -2.060 -72.266 
-3.788 -1.767 -72.548 
2.935 8.801 -69.800 
2.878 8.844 -69.807 
11.520 -11.482 -70.502 
11.650 -11.556 -70.627 
-13.530 -5.174 -70.634 
-13.514 -4.861 -70.681 
9.334 3.720 -67.323 
9.572 3.744 -67.486 
2.024 -6.995 -64.512 
1.985 -6.919 -65.001 
-9.009 10.170 -74.421 
-8.954 10.475 -74.472 
8.194 -2.752 -68.476 
8.517 -2.573 -69.194 
2.605 5.933 -65.199 
2.726 6.061 -65.344 
-14.336 -6.974 -72.080 
-14.211 -6.761 -72.174 
0.058 5.295 -66.723 
0.193 5.413 -66.985 
-14.498 1.345 -73.605 
-14.458 1.611 -73.683 
11.790 9.723 -71.165 
12.009 9.767 -71.398 
5.741 -3.074 -67.456 
6.157 -2.664 -67.990 
5.271 2.280 -67.052 
5.370 2.520 -67.644 
3.833 -12.565 -71.735 
4.056 -12.500 -71.766 
-6.150 -3.831 -66.116 
-5.991 -3.723 -66.557 
1.953 -9.756 -64.754 
2.180 -9.543 -64.685 
5.234 -12.337 -71.387 
5.480 -12.187 -71.378 
11.722 11.805 -67.555 
11.742 11.655 -67.469 
-16.045 0.675 -73.263 
-16.120 0.929 -73.485 
-5.281 -1.575 -66.014 
-4.984 -1.335 -66.457 
-0.235 -2.499 -72.384 
0.033 -2.472 -72.701 
-9.375 -3.187 -72.310 
-9.377 -3.097 -72.576 
-5.826 7.589 -62.012 
-5.643 7.794 -62.161 
9.157 -11.831 -70.669 
9.252 -11.755 -70.777 
-10.501 -1.052 -71.533 
-10.415 -1.008 -71.857 
-11.130 -11.193 -72.288 
-10.934 -11.055 -72.217 
-3.662 11.909 -70.337 
-3.782 11.992 -70.260 
13.153 -3.940 -69.085 
13.328 -3.788 -69.326 
14.119 0.986 -67.721 
14.089 1.176 -67.768 
4.072 10.894 -61.966 
3.946 10.990 -61.717 
-0.408 7.831 -69.593 
-0.406 8.027 -69.628 
4.183 7.607 -63.929 
4.326 7.614 -63.946 
3.787 -1.408 -66.175 
3.970 -1.274 -66.357 
1.076 -1.503 -72.735 
1.087 -1.443 -72.917 
-14.231 7.176 -72.680 
-14.086 7.550 -72.944 
2.286 7.737 -66.571 
2.259 7.718 -66.704 
9.327 6.175 -62.854 
9.398 6.254 -62.959 
-9.097 12.302 -72.100 
-8.988 12.733 -72.073 
0.716 -7.154 -65.705 
0.927 -7.096 -66.171 
-3.196 8.925 -68.732 
-3.208 9.053 -68.644 
[...]
POINT_DATA 968 
SCALARS Umean double 1 
LOOKUP_TABLE default
0.12478 
0.12478 
0.18972 
0.18972 
0.09440 
0.09440 
0.07806 
0.07806 
0.25021 
0.25021 
0.11001 
0.11001 
0.13504 
0.13504 
0.23743 
0.23743 
0.11885 
0.11885 
0.17713 
0.17713 
0.12612 
0.12612 
0.18140 
0.18140 
0.22308 
0.22308 
0.08388 
0.08388 
0.16329 
0.16329 
0.22196 
0.22196 
0.22118 
0.22118 
0.08533 
0.08533 
0.16909 
0.16909 
0.05684 
0.05684 
0.17054 
0.17054 
0.22369 
0.22369 
0.12230 
0.12230 
0.20056 
0.20056 
0.21693 
0.21693 
0.17951 
0.17951 
0.18239 
0.18239 
0.11102 
0.11102 
0.19432 
0.19432 
0.22613 
0.22613 
0.22473 
0.22473 
0.17017 
0.17017 
0.16124 
0.16124 
0.17574 
0.17574 
0.29356 
0.29356 
0.14307 
0.14307 
0.06099 
0.06099 
0.13575 
0.13575 
0.30294 
0.30294 
0.13511 
0.13511 
0.09946 
0.09946 
0.21122 
0.21122 
0.15566 
0.15566 
0.26464 
0.26464 
0.22201 
0.22201 
0.18248 
0.18248 
0.22736 
0.22736 
0.11922 
0.11922 
0.23487 
0.23487 
0.10178 
0.10178 
0.19708 
0.19708 
0.13848 
0.13848 
0.10667 
0.10667 
0.12987 
0.12987 
0.09975 
0.09975 
0.22804 
0.22804 
0.05882 
0.05882 
0.10196 
0.10196 
0.18850 
0.18850 
0.08382 
0.08382 
0.31311 
0.31311 
0.22535 
0.22535 
0.16944 
0.16944 
0.14891 
0.14891 
0.14682 
0.14682 
0.14572 
0.14572 
0.16366 
0.16366 
0.14375 
0.14375 
0.18122 
0.18122 
0.11157 
0.11157 
0.09012 
0.09012 
0.22147 
0.22147 
0.26248 
0.26248 
0.07075 
0.07075 
0.22568 
0.22568 
0.15109 
0.15109 
0.19842 
0.19842 
0.12147 
0.12147 
0.21207 
0.21207 
0.23539 
0.23539 
0.14924 
0.14924 
0.34758 
0.34758 
0.15277 
0.15277 
0.22777 
0.22777 
0.18665 
0.18665 
0.09651 
0.09651 
0.17679 
0.17679 
0.14235 
0.14235 
0.09313 
0.09313 
0.13623 
0.13623 
0.15768 
0.15768 
0.14652 
0.14652 
0.07481 
0.07481 
0.21409 
0.21409 
0.22217 
0.22217 
0.15311 
0.15311 
0.09855 
0.09855 
0.23763 
0.23763 
0.14905 
0.14905 
0.14665 
0.14665 
0.07700 
0.07700 
0.01873 
0.01873 
0.08198 
0.08198 
0.19262 
0.19262 
0.03667 
0.03667 
0.17326 
0.17326 
0.12856 
0.12856 
0.07336 
0.07336 
0.09219 
0.09219 
0.12812 
0.12812 
0.06510 
0.06510 
0.07343 
0.07343 
0.10678 
0.10678 
0.13115 
0.13115 
0.17167 
0.17167 
0.19723 
0.19723 
0.07003 
0.07003 
0.10523 
0.10523 
0.11489 
0.11489 
0.14310 
0.14310 
0.09918 
0.09918 
0.05100 
0.05100 
0.10329 
0.10329 
0.24333 
0.24333 
0.19653 
0.19653 
0.24002 
0.24002 
0.30294 
0.30294 
0.22756 
0.22756 
0.19538 
0.19538 
0.09937 
0.09937 
0.17134 
0.17134 
0.15082 
0.15082 
0.10223 
0.10223 
0.12975 
0.12975 
0.13549 
0.13549 
0.16743 
0.16743 
0.11681 
0.11681 
0.26335 
0.26335 
0.14867 
0.14867 
0.04508 
0.04508 
0.06052 
0.06052 
0.14719 
0.14719 
0.09659 
0.09659 
0.12607 
0.12607 
0.20676 
0.20676 
0.10343 
0.10343 
0.15473 
0.15473 
0.10701 
0.10701 
0.11821 
0.11821 
0.11555 
0.11555 
0.15747 
0.15747 
0.17392 
0.17392 
0.07114 
0.07114 
0.23028 
0.23028 
0.09884 
0.09884 
0.14428 
0.14428 
0.07981 
0.07981 
0.15523 
0.15523 
0.22258 
0.22258 
0.13431 
0.13431 
0.11641 
0.11641 
0.10734 
0.10734 
0.19949 
0.19949 
0.14436 
0.14436 
0.10511 
0.10511 
0.17868 
0.17868 
0.20053 
0.20053 
0.14348 
0.14348 
0.32277 
0.32277 
0.11376 
0.11376 
0.26082 
0.26082 
0.13647 
0.13647 
0.09793 
0.09793 
0.06363 
0.06363 
0.26484 
0.26484 
0.07167 
0.07167 
0.26046 
0.26046 
0.17625 
0.17625 
0.20446 
0.20446 
0.24134 
0.24134 
0.03587 
0.03587 
0.09747 
0.09747 
0.15846 
0.15846 
0.14473 
0.14473 
0.24820 
0.24820 
0.15704 
0.15704 
0.40370 
0.40370 
0.11407 
0.11407 
0.13213 
0.13213 
0.15874 
0.15874 
0.14004 
0.14004 
0.16139 
0.16139 
0.39570 
0.39570 
0.32321 
0.32321 
0.11717 
0.11717 
0.24053 
0.24053 
0.15942 
0.15942 
0.14413 
0.14413 
0.08703 
0.08703 
0.17279 
0.17279 
0.29243 
0.29243 
0.20799 
0.20799 
0.14041 
0.14041 
0.15630 
0.15630 
0.08134 
0.08134 
0.16905 
0.16905 
0.12500 
0.12500 
0.08249 
0.08249 
0.16719 
0.16719 
0.09901 
0.09901 
0.14756 
0.14756 
0.09956 
0.09956 
0.07209 
0.07209 
0.14540 
0.14540 
0.09598 
0.09598 
0.24010 
0.24010 
0.06852 
0.06852 
0.07468 
0.07468 
0.22269 
0.22269 
0.25741 
0.25741 
0.07790 
0.07790 
0.07365 
0.07365 
0.03664 
0.03664 
0.07046 
0.07046 
0.29900 
0.29900 
0.19301 
0.19301 
0.05613 
0.05613 
0.09472 
0.09472 
0.16858 
0.16858 
0.10485 
0.10485 
0.14114 
0.14114 
0.11042 
0.11042 
0.09039 
0.09039 
0.09946 
0.09946 
0.18674 
0.18674 
0.16278 
0.16278 
0.13574 
0.13574 
0.08835 
0.08835 
0.11229 
0.11229 
0.28186 
0.28186 
0.13591 
0.13591 
0.13092 
0.13092 
0.11659 
0.11659 
0.12588 
0.12588 
0.16998 
0.16998 
0.04344 
0.04344 
0.12526 
0.12526 
0.19426 
0.19426 
0.08892 
0.08892 
0.10586 
0.10586 
0.12828 
0.12828 
0.11419 
0.11419 
0.18289 
0.18289 
0.24597 
0.24597 
0.15381 
0.15381 
0.25593 
0.25593 
0.23524 
0.23524 
0.06823 
0.06823 
0.04776 
0.04776 
0.11945 
0.11945 
0.17899 
0.17899 
0.14367 
0.14367 
0.11405 
0.11405 
0.24975 
0.24975 
0.09426 
0.09426 
0.13490 
0.13490 
0.09568 
0.09568 
0.14011 
0.14011 
0.08903 
0.08903 
0.20378 
0.20378 
0.14976 
0.14976 
0.06071 
0.06071 
0.11470 
0.11470 
0.06720 
0.06720 
0.14751 
0.14751 
0.06943 
0.06943 
0.07544 
0.07544 
0.18205 
0.18205 
0.14530 
0.14530 
0.15610 
0.15610 
0.12121 
0.12121 
0.09279 
0.09279 
0.17399 
0.17399 
0.05329 
0.05329 
0.03520 
0.03520 
0.13211 
0.13211 
0.11955 
0.11955 
0.15213 
0.15213 
0.20704 
0.20704 
0.09418 
0.09418 
0.07273 
0.07273 
0.21671 
0.21671 
0.09917 
0.09917 
0.14332 
0.14332 
0.18375 
0.18375 
0.21729 
0.21729 
0.18515 
0.18515 
0.09291 
0.09291 
0.13818 
0.13818 
0.18457 
0.18457 
0.14116 
0.14116 
0.11743 
0.11743 
0.16797 
0.16797 
0.16229 
0.16229 
0.29205 
0.29205 
0.22822 
0.22822 
0.30229 
0.30229 
0.13542 
0.13542 
0.15742 
0.15742 
0.12838 
0.12838 
0.16939 
0.16939 
0.06778 
0.06778 
0.23742 
0.23742 
0.16035 
0.16035 
0.22698 
0.22698 
0.08239 
0.08239 
0.10504 
0.10504 
0.08719 
0.08719 
0.23188 
0.23188 
0.26138 
0.26138 
0.20681 
0.20681 
0.26694 
0.26694 
0.08636 
0.08636 
0.13721 
0.13721 
0.15939 
0.15939 
0.07258 
0.07258 
0.12432 
0.12432 
0.40209 
0.40209 
0.16961 
0.16961 
0.19128 
0.19128 
0.12289 
0.12289 
0.13936 
0.13936 
0.20379 
0.20379 
0.13201 
0.13201 
0.08604 
0.08604 
0.16718 
0.16718 
0.18053 
0.18053 
0.14460 
0.14460 
0.23112 
0.23112 
0.10221 
0.10221 
0.19027 
0.19027 
0.28933 
0.28933 
0.16627 
0.16627 
0.11207 
0.11207 
0.14938 
0.14938 
0.08170 
0.08170 
0.12399 
0.12399 
0.11180 
0.11180 
0.21753 
0.21753 
0.18040 
0.18040 
0.10201 
0.10201 
0.18916 
0.18916 
0.18983 
0.18983 
0.15258 
0.15258 
0.27350 
0.27350 
0.17696 
0.17696 
0.09931 
0.09931 
0.12494 
0.12494 
0.11170 
0.11170 
0.05224 
0.05224 
0.11015 
0.11015 
0.06902 
0.06902 
0.08085 
0.08085 
0.09267 
0.09267 
0.09753 
0.09753 
0.18538 
0.18538 
0.07497 
0.07497 
0.21817 
0.21817 
0.24669 
0.24669 
0.19094 
0.19094 
0.14492 
0.14492 
0.11838 
0.11838 
0.15841 
0.15841 
0.16917 
0.16917 
0.23522 
0.23522 
0.16290 
0.16290 
0.16308 
0.16308 
0.21206 
0.21206 
0.09885 
0.09885 
0.13985 
0.13985 
0.26635 
0.26635 
0.17421 
0.17421 
0.16972 
0.16972 
0.08637 
0.08637 
0.04983 
0.04983 
0.13491 
0.13491 
0.21528 
0.21528 
0.10491 
0.10491 
0.11019 
0.11019 
0.09857 
0.09857 
0.12014 
0.12014 
0.11680 
0.11680 
0.08469 
0.08469 
0.09812 
0.09812 
0.10946 
0.10946 
0.33808 
0.33808 
0.21111 
0.21111 
0.20651 
0.20651 
0.14370 
0.14370 
0.09219 
0.09219 
0.23128 
0.23128 
0.06850 
0.06850 
0.13475 
0.13475 
0.09242 
0.09242 
0.14830 
0.14830 
0.22156 
0.22156 
0.13001 
0.13001 
0.09398 
0.09398 
0.14317 
0.14317 
0.11518 
0.11518 
0.22895 
0.22895 
0.15632 
0.15632 
0.03790 
0.03790 
0.17820 
0.17820 
0.12479 
0.12479 
0.14961 
0.14961 
0.09509 
0.09509 
0.19253 
0.19253 
0.25083 
0.25083 
0.16337 
0.16337 
0.12026 
0.12026 
0.22218 
0.22218 
0.10541 
0.10541 
0.06747 
0.06747 
0.13080 
0.13080 
0.22993 
0.22993 
0.24299 
0.24299 
0.20544 
0.20544 
0.13182 
0.13182 
0.22642 
0.22642 
0.32653 
0.32653 
0.09905 
0.09905 
0.07607 
0.07607 
0.18814 
0.18814 
0.22399 
0.22399 
0.16993 
0.16993 
0.05968 
0.05968 
0.15942 
0.15942 
0.12106 
0.12106 
0.18492 
0.18492 
0.05420 
0.05420 
0.08658 
0.08658 
0.05174 
0.05174 
0.17140 
0.17140 
0.09020 
0.09020 
0.26654 
0.26654 
0.10916 
0.10916 
0.16671 
0.16671 
0.18345 
0.18345 
0.16413 
0.16413 
0.10536 
0.10536 
0.19922 
0.19922 
0.09173 
0.09173 
0.22616 
0.22616 
0.18130 
0.18130 
0.06922 
0.06922 
0.17323 
0.17323 
0.18931 
0.18931 
0.17990 
0.17990 
0.22691 
0.22691 
0.18710 
0.18710 
0.05408 
0.05408 
0.21951 
0.21951 
0.14150 
0.14150 
0.09471 
0.09471 
0.09092 
0.09092 
0.19688 
0.19688 
0.12151 
0.12151 
0.13655 
0.13655 
0.12802 
0.12802 
0.07592 
0.07592 
0.08534 
0.08534 
0.15629 
0.15629 
0.25232 
0.25232 
0.13731 
0.13731 
0.10969 
0.10969 
0.07678 
0.07678 
0.09109 
0.09109 
0.26458 
0.26458 
0.14174 
0.14174 
0.14758 
0.14758 
0.08035 
0.08035 
0.11617 
0.11617 
0.16215 
0.16215 
SCALARS Umean_X double 1 
LOOKUP_TABLE default
0.05400 
0.05400 
-0.00650 
-0.00650 
-0.02650 
-0.02650 
-0.00550 
-0.00550 
0.00850 
0.00850 
0.00550 
0.00550 
-0.02250 
-0.02250 
0.16250 
0.16250 
-0.00200 
-0.00200 
0.06200 
0.06200 
0.06800 
0.06800 
0.05500 
0.05500 
0.04650 
0.04650 
-0.03350 
-0.03350 
0.05350 
0.05350 
0.10400 
0.10400 
0.05450 
0.05450 
0.06950 
0.06950 
0.00200 
0.00200 
-0.03200 
-0.03200 
0.04000 
0.04000 
0.05900 
0.05900 
0.07000 
0.07000 
0.04500 
0.04500 
0.02800 
0.02800 
0.02850 
0.02850 
0.04250 
0.04250 
0.07850 
0.07850 
0.11550 
0.11550 
0.07150 
0.07150 
0.08400 
0.08400 
-0.01000 
-0.01000 
-0.04400 
-0.04400 
0.09750 
0.09750 
0.05800 
0.05800 
0.08400 
0.08400 
-0.00650 
-0.00650 
-0.03900 
-0.03900 
0.12050 
0.12050 
0.06650 
0.06650 
-0.05950 
-0.05950 
0.10400 
0.10400 
0.06750 
0.06750 
0.11950 
0.11950 
0.09000 
0.09000 
0.05600 
0.05600 
0.05850 
0.05850 
-0.01300 
-0.01300 
0.02850 
0.02850 
-0.05300 
-0.05300 
0.00950 
0.00950 
-0.01250 
-0.01250 
0.04750 
0.04750 
0.04200 
0.04200 
-0.05050 
-0.05050 
0.05700 
0.05700 
0.04950 
0.04950 
-0.01750 
-0.01750 
-0.01550 
-0.01550 
-0.00550 
-0.00550 
0.05100 
0.05100 
0.01450 
0.01450 
0.06950 
0.06950 
0.02450 
0.02450 
0.04450 
0.04450 
0.10900 
0.10900 
0.04200 
0.04200 
0.01550 
0.01550 
0.03050 
0.03050 
0.01200 
0.01200 
0.03150 
0.03150 
0.10550 
0.10550 
0.10100 
0.10100 
0.01000 
0.01000 
0.11550 
0.11550 
0.08750 
0.08750 
0.11900 
0.11900 
0.06800 
0.06800 
0.12700 
0.12700 
0.06000 
0.06000 
0.02050 
0.02050 
0.15200 
0.15200 
-0.00900 
-0.00900 
-0.03400 
-0.03400 
0.07950 
0.07950 
0.01400 
0.01400 
0.11600 
0.11600 
-0.04250 
-0.04250 
-0.03750 
-0.03750 
0.11400 
0.11400 
0.08250 
0.08250 
-0.01850 
-0.01850 
0.05500 
0.05500 
0.09450 
0.09450 
0.08300 
0.08300 
0.10400 
0.10400 
-0.04300 
-0.04300 
0.09300 
0.09300 
0.08750 
0.08750 
0.06400 
0.06400 
-0.02450 
-0.02450 
-0.00250 
-0.00250 
0.01550 
0.01550 
-0.00750 
-0.00750 
0.01850 
0.01850 
0.08700 
0.08700 
0.04050 
0.04050 
0.05900 
0.05900 
0.02200 
0.02200 
0.08700 
0.08700 
0.05900 
0.05900 
-0.04050 
-0.04050 
0.04450 
0.04450 
0.06950 
0.06950 
0.07550 
0.07550 
0.04250 
0.04250 
-0.03850 
-0.03850 
0.05350 
0.05350 
0.04450 
0.04450 
0.03600 
0.03600 
0.07250 
0.07250 
0.00700 
0.00700 
0.08150 
0.08150 
0.08100 
0.08100 
0.04250 
0.04250 
0.12550 
0.12550 
0.08500 
0.08500 
0.10500 
0.10500 
0.13850 
0.13850 
0.08200 
0.08200 
0.05550 
0.05550 
0.00550 
0.00550 
-0.05800 
-0.05800 
0.07350 
0.07350 
-0.00950 
-0.00950 
0.10650 
0.10650 
0.08000 
0.08000 
0.14250 
0.14250 
-0.03100 
-0.03100 
0.02350 
0.02350 
0.00250 
0.00250 
0.03100 
0.03100 
-0.05500 
-0.05500 
-0.02750 
-0.02750 
0.10050 
0.10050 
0.06300 
0.06300 
0.03900 
0.03900 
0.07450 
0.07450 
0.03150 
0.03150 
0.06350 
0.06350 
0.06450 
0.06450 
0.12850 
0.12850 
-0.02800 
-0.02800 
0.01850 
0.01850 
0.04950 
0.04950 
0.01250 
0.01250 
-0.04550 
-0.04550 
0.08250 
0.08250 
0.18650 
0.18650 
0.10850 
0.10850 
0.01450 
0.01450 
-0.03750 
-0.03750 
0.07450 
0.07450 
0.07800 
0.07800 
0.01650 
0.01650 
0.09300 
0.09300 
0.05300 
0.05300 
0.10050 
0.10050 
0.12750 
0.12750 
-0.02700 
-0.02700 
-0.03100 
-0.03100 
0.07150 
0.07150 
-0.04050 
-0.04050 
-0.04400 
-0.04400 
0.09600 
0.09600 
0.04600 
0.04600 
0.10100 
0.10100 
0.05050 
0.05050 
0.02850 
0.02850 
0.13000 
0.13000 
-0.02850 
-0.02850 
0.06500 
0.06500 
0.00800 
0.00800 
0.11900 
0.11900 
-0.01950 
-0.01950 
0.02750 
0.02750 
0.16150 
0.16150 
0.06050 
0.06050 
0.06250 
0.06250 
0.06750 
0.06750 
0.02000 
0.02000 
0.10950 
0.10950 
0.20800 
0.20800 
0.04950 
0.04950 
0.11150 
0.11150 
0.07950 
0.07950 
0.11350 
0.11350 
0.12300 
0.12300 
0.01000 
0.01000 
-0.03750 
-0.03750 
0.14850 
0.14850 
0.13400 
0.13400 
-0.00100 
-0.00100 
0.09150 
0.09150 
0.04750 
0.04750 
0.04300 
0.04300 
0.09800 
0.09800 
-0.06000 
-0.06000 
0.08750 
0.08750 
-0.01500 
-0.01500 
-0.06300 
-0.06300 
0.00100 
0.00100 
0.07150 
0.07150 
0.09150 
0.09150 
0.00550 
0.00550 
0.07250 
0.07250 
-0.01350 
-0.01350 
0.03550 
0.03550 
0.05450 
0.05450 
0.10550 
0.10550 
-0.00600 
-0.00600 
0.05550 
0.05550 
0.00100 
0.00100 
0.05250 
0.05250 
0.11250 
0.11250 
0.04000 
0.04000 
0.03650 
0.03650 
0.03100 
0.03100 
0.06900 
0.06900 
0.07450 
0.07450 
0.09050 
0.09050 
0.10200 
0.10200 
-0.03150 
-0.03150 
0.02850 
0.02850 
0.09250 
0.09250 
0.03050 
0.03050 
0.10300 
0.10300 
0.04150 
0.04150 
-0.01150 
-0.01150 
0.20000 
0.20000 
0.02250 
0.02250 
0.01050 
0.01050 
0.08100 
0.08100 
0.08150 
0.08150 
0.13550 
0.13550 
-0.00950 
-0.00950 
0.02050 
0.02050 
0.09150 
0.09150 
0.01600 
0.01600 
-0.01000 
-0.01000 
0.04650 
0.04650 
0.08200 
0.08200 
0.04750 
0.04750 
0.10100 
0.10100 
0.11950 
0.11950 
0.04250 
0.04250 
0.11050 
0.11050 
0.05850 
0.05850 
-0.02450 
-0.02450 
-0.08900 
-0.08900 
-0.00250 
-0.00250 
0.10500 
0.10500 
0.07400 
0.07400 
0.15600 
0.15600 
-0.04500 
-0.04500 
0.10800 
0.10800 
0.02250 
0.02250 
0.09400 
0.09400 
0.06750 
0.06750 
0.06000 
0.06000 
0.04400 
0.04400 
0.00500 
0.00500 
0.04800 
0.04800 
-0.00800 
-0.00800 
0.10200 
0.10200 
-0.00850 
-0.00850 
0.01650 
0.01650 
0.16050 
0.16050 
0.04200 
0.04200 
0.08650 
0.08650 
0.07350 
0.07350 
-0.02350 
-0.02350 
-0.03100 
-0.03100 
-0.00200 
-0.00200 
0.00150 
0.00150 
0.11700 
0.11700 
0.09300 
0.09300 
0.13650 
0.13650 
0.06850 
0.06850 
0.03950 
0.03950 
-0.02850 
-0.02850 
0.09700 
0.09700 
0.05700 
0.05700 
0.09800 
0.09800 
-0.04750 
-0.04750 
-0.00450 
-0.00450 
0.08900 
0.08900 
-0.00450 
-0.00450 
0.06350 
0.06350 
0.07200 
0.07200 
0.00450 
0.00450 
0.06100 
0.06100 
0.01150 
0.01150 
0.09650 
0.09650 
0.15450 
0.15450 
0.10600 
0.10600 
0.09450 
0.09450 
0.08000 
0.08000 
0.07800 
0.07800 
0.01500 
0.01500 
0.08300 
0.08300 
0.06100 
0.06100 
0.12350 
0.12350 
0.04800 
0.04800 
0.10700 
0.10700 
0.01500 
0.01500 
-0.07200 
-0.07200 
0.03450 
0.03450 
0.08300 
0.08300 
0.08600 
0.08600 
-0.01450 
-0.01450 
0.07600 
0.07600 
0.07950 
0.07950 
0.11250 
0.11250 
0.13000 
0.13000 
-0.02650 
-0.02650 
0.01250 
0.01250 
0.22300 
0.22300 
0.00150 
0.00150 
0.09650 
0.09650 
-0.00900 
-0.00900 
0.06350 
0.06350 
0.11050 
0.11050 
0.04950 
0.04950 
-0.04700 
-0.04700 
0.11050 
0.11050 
0.02050 
0.02050 
0.07650 
0.07650 
0.03300 
0.03300 
0.08900 
0.08900 
0.08850 
0.08850 
0.10000 
0.10000 
0.00200 
0.00200 
0.06350 
0.06350 
-0.01150 
-0.01150 
0.06350 
0.06350 
0.10250 
0.10250 
0.04700 
0.04700 
0.09950 
0.09950 
0.15850 
0.15850 
-0.09100 
-0.09100 
0.15700 
0.15700 
-0.01600 
-0.01600 
0.10650 
0.10650 
0.11850 
0.11850 
0.02350 
0.02350 
0.01700 
0.01700 
0.08200 
0.08200 
0.08400 
0.08400 
0.02200 
0.02200 
0.04050 
0.04050 
0.06400 
0.06400 
0.00750 
0.00750 
0.07250 
0.07250 
0.09000 
0.09000 
0.12650 
0.12650 
-0.03800 
-0.03800 
0.07900 
0.07900 
0.13900 
0.13900 
0.00400 
0.00400 
0.02150 
0.02150 
-0.06050 
-0.06050 
0.01900 
0.01900 
0.03800 
0.03800 
0.11600 
0.11600 
0.02900 
0.02900 
0.00700 
0.00700 
0.10400 
0.10400 
-0.02250 
-0.02250 
0.07250 
0.07250 
0.12150 
0.12150 
-0.00300 
-0.00300 
0.06800 
0.06800 
-0.02650 
-0.02650 
-0.04700 
-0.04700 
0.11900 
0.11900 
0.02250 
0.02250 
0.08450 
0.08450 
-0.04450 
-0.04450 
0.08500 
0.08500 
0.07650 
0.07650 
0.07700 
0.07700 
-0.07150 
-0.07150 
-0.03950 
-0.03950 
0.10650 
0.10650 
0.16150 
0.16150 
0.10100 
0.10100 
0.00300 
0.00300 
0.04250 
0.04250 
0.08900 
0.08900 
-0.01150 
-0.01150 
-0.02350 
-0.02350 
-0.01200 
-0.01200 
0.07750 
0.07750 
0.01050 
0.01050 
0.15300 
0.15300 
0.01600 
0.01600 
0.08450 
0.08450 
-0.01400 
-0.01400 
0.04250 
0.04250 
0.17650 
0.17650 
-0.05500 
-0.05500 
0.03450 
0.03450 
0.05500 
0.05500 
0.08050 
0.08050 
0.06100 
0.06100 
-0.05100 
-0.05100 
0.11000 
0.11000 
0.02200 
0.02200 
0.08200 
0.08200 
-0.00850 
-0.00850 
0.19550 
0.19550 
-0.05200 
-0.05200 
0.02400 
0.02400 
-0.01650 
-0.01650 
0.10800 
0.10800 
0.13500 
0.13500 
0.02750 
0.02750 
-0.06350 
-0.06350 
-0.05400 
-0.05400 
0.19250 
0.19250 
0.04800 
0.04800 
0.07200 
0.07200 
0.05800 
0.05800 
0.13750 
0.13750 
0.08850 
0.08850 
0.04400 
0.04400 
0.09300 
0.09300 
0.10050 
0.10050 
0.04850 
0.04850 
0.00300 
0.00300 
0.06700 
0.06700 
-0.02700 
-0.02700 
-0.13900 
-0.13900 
0.08800 
0.08800 
0.15700 
0.15700 
0.08950 
0.08950 
0.02350 
0.02350 
0.07850 
0.07850 
0.09400 
0.09400 
0.04750 
0.04750 
0.01600 
0.01600 
0.04500 
0.04500 
0.09450 
0.09450 
0.08250 
0.08250 
0.04200 
0.04200 
0.11300 
0.11300 
0.04200 
0.04200 
0.02950 
0.02950 
0.09250 
0.09250 
0.12750 
0.12750 
-0.00500 
-0.00500 
0.13800 
0.13800 
0.05050 
0.05050 
0.08300 
0.08300 
0.05850 
0.05850 
0.07200 
0.07200 
-0.06150 
-0.06150 
-0.01150 
-0.01150 
0.01150 
0.01150 
-0.05500 
-0.05500 
-0.01750 
-0.01750 
0.13700 
0.13700 
-0.02250 
-0.02250 
0.10100 
0.10100 
0.08000 
0.08000 
-0.02150 
-0.02150 
0.02050 
0.02050 
0.03650 
0.03650 
0.03700 
0.03700 
0.14550 
0.14550 
0.05450 
0.05450 
0.03950 
0.03950 
-0.00100 
-0.00100 
SCALARS Umean_Y double 1 
LOOKUP_TABLE default
0.04850 
0.04850 
0.10850 
0.10850 
0.06700 
0.06700 
0.06650 
0.06650 
0.12600 
0.12600 
0.02700 
0.02700 
0.04850 
0.04850 
0.06100 
0.06100 
0.10400 
0.10400 
0.08500 
0.08500 
0.10450 
0.10450 
0.14100 
0.14100 
0.13550 
0.13550 
0.07200 
0.07200 
0.10450 
0.10450 
0.10750 
0.10750 
0.08450 
0.08450 
0.04550 
0.04550 
0.14250 
0.14250 
0.04600 
0.04600 
0.10350 
0.10350 
0.11350 
0.11350 
0.08750 
0.08750 
0.08500 
0.08500 
0.09500 
0.09500 
0.09900 
0.09900 
0.09850 
0.09850 
0.04750 
0.04750 
0.12050 
0.12050 
0.17850 
0.17850 
0.05700 
0.05700 
0.16250 
0.16250 
0.11900 
0.11900 
0.05850 
0.05850 
0.07800 
0.07800 
0.07100 
0.07100 
0.05900 
0.05900 
0.08250 
0.08250 
0.21050 
0.21050 
-0.11700 
-0.11700 
0.06950 
0.06950 
0.07900 
0.07900 
0.06650 
0.06650 
0.11450 
0.11450 
0.14200 
0.14200 
0.11900 
0.11900 
0.16100 
0.16100 
0.08100 
0.08100 
0.09700 
0.09700 
-0.01550 
-0.01550 
0.07500 
0.07500 
0.10450 
0.10450 
0.09350 
0.09350 
0.12000 
0.12000 
0.08600 
0.08600 
0.13200 
0.13200 
-0.01300 
-0.01300 
0.06900 
0.06900 
0.12800 
0.12800 
0.08200 
0.08200 
0.11800 
0.11800 
0.16150 
0.16150 
-0.02500 
-0.02500 
0.10850 
0.10850 
0.05650 
0.05650 
0.08850 
0.08850 
0.04200 
0.04200 
0.08750 
0.08750 
0.15000 
0.15000 
0.09850 
0.09850 
0.08300 
0.08300 
-0.00950 
-0.00950 
0.09350 
0.09350 
0.00250 
0.00250 
0.07450 
0.07450 
0.06600 
0.06600 
0.06000 
0.06000 
0.04700 
0.04700 
0.14900 
0.14900 
0.14850 
0.14850 
0.11650 
0.11650 
0.12500 
0.12500 
0.07550 
0.07550 
0.15000 
0.15000 
0.03100 
0.03100 
0.08500 
0.08500 
0.10750 
0.10750 
0.13250 
0.13250 
0.05850 
0.05850 
0.05750 
0.05750 
0.07500 
0.07500 
0.12950 
0.12950 
-0.01100 
-0.01100 
0.06150 
0.06150 
0.00600 
0.00600 
0.08750 
0.08750 
0.06750 
0.06750 
0.11500 
0.11500 
0.02000 
0.02000 
0.08550 
0.08550 
-0.00000 
-0.00000 
-0.00150 
-0.00150 
0.08050 
0.08050 
0.04950 
0.04950 
0.03050 
0.03050 
0.01000 
0.01000 
0.08850 
0.08850 
-0.04350 
-0.04350 
0.08950 
0.08950 
0.06550 
0.06550 
-0.02750 
-0.02750 
0.04100 
0.04100 
0.08600 
0.08600 
0.01950 
0.01950 
0.14550 
0.14550 
0.06850 
0.06850 
0.05550 
0.05550 
0.08650 
0.08650 
-0.02250 
-0.02250 
0.07250 
0.07250 
0.06450 
0.06450 
0.03150 