# vtk DataFile Version 2.1 
Trajects from timestep 153 with color option 
ASCII 
 
DATASET POLYDATA POINTS 992 float 
2.741 7.390 -73.361 
2.898 7.502 -73.430 
-0.640 7.123 -68.502 
-0.666 7.237 -68.593 
5.696 6.431 -70.814 
5.806 6.540 -71.008 
-0.493 10.057 -72.033 
-0.516 10.154 -72.043 
-12.707 -2.639 -74.607 
-12.723 -2.435 -74.791 
2.166 4.705 -72.648 
2.174 4.944 -73.022 
0.120 4.614 -69.404 
0.224 4.792 -69.769 
7.023 -4.239 -72.934 
7.205 -4.134 -73.567 
-6.765 7.370 -70.827 
-6.777 7.605 -71.138 
0.837 1.935 -72.326 
0.976 2.178 -72.709 
-7.569 5.422 -71.181 
-7.490 5.683 -71.544 
-0.328 -1.590 -67.527 
-0.130 -1.170 -67.817 
0.514 9.712 -71.116 
0.514 9.834 -71.116 
1.087 -1.443 -72.917 
1.119 -1.416 -73.048 
1.163 6.426 -74.613 
1.147 6.602 -74.831 
-1.061 1.241 -68.713 
-1.025 1.419 -69.019 
-0.419 -4.514 -68.762 
-0.273 -4.310 -69.304 
-8.389 -0.864 -68.008 
-8.274 -0.577 -68.236 
-4.170 6.812 -67.402 
-4.251 6.963 -67.488 
-0.715 7.856 -68.021 
-0.791 7.948 -68.022 
1.572 5.798 -70.967 
1.546 5.966 -71.330 
13.855 3.460 -70.626 
13.835 3.770 -70.739 
6.928 4.498 -72.760 
7.151 4.556 -73.133 
-2.217 5.908 -70.735 
-2.248 6.149 -71.005 
3.884 5.507 -69.338 
3.989 5.692 -69.678 
-9.595 4.501 -68.872 
-9.508 4.729 -69.138 
-2.826 -8.453 -67.836 
-2.967 -8.497 -68.032 
-2.353 -5.577 -70.847 
-2.329 -5.343 -70.973 
-8.582 -4.069 -73.017 
-8.585 -3.994 -73.270 
-1.851 12.441 -68.975 
-1.935 12.676 -68.978 
-3.739 9.201 -72.658 
-3.759 9.448 -72.669 
-0.589 8.108 -72.897 
-0.498 8.257 -72.896 
0.839 -3.012 -69.172 
1.099 -2.758 -69.542 
-4.969 5.876 -67.247 
-4.943 6.045 -67.535 
-2.374 -11.664 -70.158 
-2.233 -11.585 -70.237 
7.818 10.302 -72.153 
7.905 10.287 -72.334 
7.790 7.601 -69.292 
7.882 7.577 -69.397 
-6.769 -4.684 -72.840 
-6.775 -4.592 -73.112 
0.094 2.468 -64.784 
0.345 2.732 -65.054 
-2.334 -9.301 -72.823 
-2.184 -9.192 -72.948 
4.170 8.634 -69.771 
4.159 8.661 -69.821 
5.670 -7.421 -70.541 
5.899 -7.283 -70.896 
-3.766 1.819 -70.006 
-3.552 2.167 -70.371 
0.497 10.617 -71.296 
0.411 10.754 -71.321 
6.812 -7.367 -70.996 
7.022 -7.272 -71.336 
-6.032 10.879 -64.631 
-6.162 11.025 -64.564 
1.131 8.744 -72.760 
1.172 8.918 -72.827 
3.383 -0.898 -70.030 
3.659 -0.590 -70.297 
5.617 -0.448 -69.364 
5.827 -0.199 -69.651 
1.136 -7.354 -63.372 
1.015 -7.205 -63.521 
9.844 -0.836 -69.417 
10.000 -0.877 -69.690 
-7.943 -3.342 -73.404 
-7.991 -3.179 -73.491 
-0.268 -1.406 -73.126 
-0.123 -1.315 -73.410 
0.134 5.072 -64.830 
0.284 5.198 -65.157 
7.026 7.508 -74.222 
7.208 7.519 -74.307 
-1.814 4.721 -69.150 
-1.601 4.911 -69.393 
2.180 -9.543 -64.685 
2.407 -9.326 -64.641 
-13.474 7.798 -68.481 
-13.562 8.041 -68.717 
2.448 -7.286 -74.100 
2.599 -7.285 -74.290 
-3.126 1.593 -67.416 
-3.007 1.848 -67.700 
7.092 1.996 -65.257 
7.052 2.086 -65.631 
3.992 -10.650 -69.695 
4.087 -10.542 -69.820 
1.488 3.825 -67.704 
1.559 3.894 -67.939 
16.141 2.257 -68.455 
16.213 2.476 -68.511 
5.459 1.704 -64.688 
5.393 1.897 -65.133 
-2.805 0.265 -66.013 
-2.746 0.461 -66.253 
1.203 6.248 -70.654 
1.245 6.255 -70.741 
-8.475 9.964 -65.661 
-8.522 10.116 -65.775 
12.618 -3.079 -69.212 
12.747 -2.940 -69.434 
0.941 -3.114 -65.648 
1.259 -2.937 -66.072 
3.334 -5.869 -67.234 
3.588 -5.819 -67.657 
11.490 8.000 -68.562 
11.508 8.163 -68.663 
2.259 7.718 -66.704 
2.240 7.704 -66.791 
1.296 7.258 -61.948 
1.521 7.436 -61.967 
-3.952 -11.914 -75.216 
-3.823 -11.726 -75.275 
-0.406 8.027 -69.628 
-0.386 8.230 -69.637 
5.370 2.520 -67.644 
5.489 2.825 -68.108 
-4.631 4.800 -62.907 
-4.375 5.084 -63.056 
-2.356 3.161 -66.000 
-2.113 3.372 -66.398 
-8.694 8.742 -71.408 
-8.685 8.962 -71.591 
-4.787 10.167 -64.969 
-4.887 10.329 -64.986 
11.949 0.843 -68.342 
11.871 1.004 -68.503 
6.098 -2.651 -73.416 
6.222 -2.502 -73.983 
11.764 11.642 -69.201 
11.940 11.402 -69.195 
12.009 -2.422 -68.416 
12.175 -2.286 -68.604 
-9.265 -7.636 -73.446 
-9.179 -7.570 -73.594 
-8.360 2.163 -73.332 
-8.199 2.320 -73.487 
-2.565 -4.590 -71.046 
-2.494 -4.372 -71.086 
10.849 11.975 -69.048 
11.004 11.892 -68.954 
-3.987 4.746 -62.632 
-3.758 4.871 -62.749 
7.614 11.136 -68.818 
7.528 10.962 -68.922 
3.851 6.176 -65.771 
3.924 6.316 -65.988 
5.835 3.718 -72.691 
5.991 3.776 -73.068 
-5.119 -5.062 -66.972 
-4.924 -4.869 -67.450 
-7.869 -2.890 -67.898 
-7.747 -2.590 -68.294 
3.179 -0.046 -70.540 
3.451 0.189 -70.822 
-8.736 12.260 -64.692 
-8.816 12.447 -64.790 
-7.092 -5.231 -69.123 
-6.919 -4.998 -69.315 
13.335 2.814 -67.420 
13.360 2.999 -67.551 
3.442 -3.664 -66.993 
3.629 -3.421 -67.372 
4.531 10.721 -67.821 
4.486 10.743 -67.667 
9.391 -3.246 -70.866 
9.475 -3.156 -71.329 
12.812 4.784 -67.671 
12.869 4.964 -67.706 
-4.774 11.507 -69.339 
-4.863 11.650 -69.315 
14.225 1.090 -71.255 
14.363 1.346 -71.268 
-11.268 7.164 -69.491 
-11.298 7.313 -69.768 
-10.009 10.073 -70.557 
-9.948 10.186 -70.718 
-7.812 8.311 -72.093 
-7.778 8.627 -72.257 
4.068 -2.933 -65.824 
4.241 -2.897 -66.135 
9.294 -0.397 -64.235 
9.378 -0.192 -64.581 
4.078 -8.733 -61.815 
4.028 -8.622 -61.896 
-1.312 -4.232 -70.662 
-1.272 -3.935 -70.849 
-8.370 8.120 -65.282 
-8.445 8.221 -65.405 
5.601 8.003 -63.091 
5.766 8.119 -63.061 
12.881 -12.250 -69.339 
13.059 -12.284 -69.518 
-7.961 -5.456 -70.572 
-7.851 -5.329 -70.781 
-1.110 -7.739 -69.582 
-0.989 -7.685 -69.771 
-1.902 5.784 -66.477 
-1.714 5.933 -66.649 
-5.595 -8.310 -72.395 
-5.573 -8.179 -72.699 
-4.099 2.715 -74.407 
-3.968 2.924 -74.691 
-12.282 11.451 -66.753 
-12.129 11.612 -66.772 
4.080 -7.510 -73.241 
4.346 -7.450 -73.523 
-2.759 -12.402 -68.865 
-2.600 -12.379 -68.987 
-3.567 -11.152 -68.821 
-3.250 -11.064 -69.012 
-6.870 3.094 -73.304 
-6.785 3.247 -73.685 
-6.512 -2.424 -73.122 
-6.485 -2.254 -73.259 
1.715 2.694 -61.936 
1.750 2.776 -62.224 
14.983 3.174 -67.392 
14.972 3.441 -67.500 
-3.486 1.983 -75.178 
-3.346 2.105 -75.474 
0.892 3.663 -69.007 
1.024 3.810 -69.326 
7.809 2.662 -64.953 
7.900 2.679 -65.187 
1.533 1.391 -61.466 
1.474 1.479 -61.726 
-11.179 3.403 -66.338 
-10.972 3.563 -66.459 
3.176 3.401 -64.059 
3.588 3.673 -64.359 
1.913 -0.928 -70.482 
2.165 -0.734 -70.619 
-7.714 8.029 -69.304 
-7.737 8.199 -69.475 
1.202 4.770 -65.761 
1.252 4.889 -66.065 
9.813 -13.098 -68.041 
9.912 -13.094 -68.258 
11.165 4.117 -72.366 
11.367 4.255 -72.788 
8.517 -2.573 -69.194 
8.748 -2.429 -69.739 
9.372 10.158 -68.368 
9.484 10.107 -68.374 
7.766 -7.042 -63.632 
7.829 -6.890 -64.062 
16.539 -0.425 -68.722 
16.475 -0.152 -68.720 
-10.934 -11.055 -72.217 
-10.673 -10.913 -72.073 
8.669 6.948 -63.678 
8.826 7.006 -63.789 
2.241 10.337 -63.594 
2.168 10.508 -63.632 
10.265 -12.723 -67.264 
10.282 -12.710 -67.538 
4.588 5.398 -69.614 
4.712 5.509 -69.877 
14.643 -4.431 -68.060 
14.829 -4.375 -68.306 
2.764 10.592 -67.828 
2.667 10.583 -67.694 
7.939 8.699 -69.065 
7.964 8.668 -69.145 
-3.835 -1.219 -64.158 
-3.516 -1.006 -64.559 
-9.377 -3.097 -72.576 
-9.338 -2.955 -72.787 
1.142 0.455 -75.779 
1.357 0.557 -76.077 
13.328 -3.788 -69.326 
13.460 -3.652 -69.540 
9.636 -0.104 -71.507 
9.847 -0.136 -71.896 
-0.609 12.908 -66.426 
-0.707 13.000 -66.298 
12.768 9.114 -71.064 
12.984 9.275 -71.289 
-2.142 -5.593 -66.119 
-1.814 -5.435 -66.669 
5.301 -0.386 -67.084 
5.439 -0.338 -67.457 
-0.219 -9.054 -64.268 
-0.027 -9.056 -64.792 
10.846 -2.014 -66.827 
11.043 -2.012 -67.159 
3.692 -5.001 -71.693 
3.870 -4.953 -71.844 
11.742 11.655 -67.469 
11.765 11.585 -67.425 
-15.056 -2.675 -72.759 
-14.953 -2.381 -72.990 
9.815 -9.660 -72.448 
9.959 -9.758 -72.701 
-3.782 11.992 -70.260 
-3.933 12.072 -70.181 
-0.170 -6.187 -66.801 
0.088 -6.103 -67.436 
-14.186 -5.235 -72.748 
-14.074 -4.913 -72.999 
4.249 11.675 -71.597 
4.110 11.564 -71.763 
2.666 -9.551 -69.327 
2.835 -9.485 -69.383 
-10.503 5.745 -75.802 
-10.446 5.836 -76.002 
11.573 -4.473 -68.186 
11.808 -4.410 -68.733 
12.490 2.212 -67.458 
12.499 2.309 -67.450 
-11.080 7.502 -74.235 
-10.993 7.840 -74.415 
-12.308 1.179 -64.736 
-12.037 1.407 -64.517 
-10.317 -0.239 -65.290 
-10.100 0.003 -65.404 
-10.149 0.474 -65.467 
-9.903 0.761 -65.579 
-7.106 -5.552 -73.937 
-6.927 -5.363 -74.111 
-7.528 10.724 -77.456 
-7.555 10.941 -77.589 
1.316 1.056 -73.424 
1.381 1.208 -73.788 
10.216 10.132 -72.849 
10.453 10.083 -73.028 
-8.686 7.320 -71.123 
-8.713 7.537 -71.506 
-2.831 -6.792 -68.075 
-2.928 -6.428 -68.503 
-5.800 3.615 -72.737 
-5.644 3.801 -73.047 
-4.611 -6.205 -73.041 
-4.425 -6.103 -73.380 
2.762 -8.805 -68.563 
2.946 -8.667 -68.630 
-5.991 -3.723 -66.557 
-5.814 -3.588 -67.189 
-9.465 -12.341 -70.168 
-9.249 -12.170 -70.081 
2.759 2.564 -61.355 
2.711 2.698 -61.651 
-15.057 0.659 -70.232 
-14.786 0.877 -70.272 
-12.774 -4.610 -69.882 
-12.837 -4.324 -69.976 
-10.102 10.287 -68.739 
-10.036 10.390 -68.810 
1.985 -6.919 -65.001 
1.947 -6.863 -65.471 
0.927 -7.096 -66.171 
1.110 -7.029 -66.535 
-8.728 -2.857 -73.726 
-8.725 -2.672 -73.964 
13.941 8.308 -69.702 
14.071 8.417 -69.935 
-4.089 -8.846 -77.218 
-3.992 -8.659 -77.236 
6.341 -11.782 -65.034 
6.505 -11.783 -65.035 
8.460 2.144 -68.759 
8.644 2.284 -69.084 
-7.953 -1.244 -61.403 
-7.689 -0.989 -61.576 
-11.910 -7.087 -71.425 
-11.878 -6.983 -71.477 
-4.160 -12.180 -69.359 
-3.963 -12.096 -69.529 
11.646 5.619 -69.140 
11.713 5.775 -69.219 
-12.820 12.348 -67.590 
-12.693 12.622 -67.756 
9.398 6.254 -62.959 
9.462 6.326 -62.991 
-0.556 13.074 -65.109 
-0.668 13.164 -64.927 
5.538 10.520 -66.459 
5.533 10.613 -66.398 
15.414 6.266 -67.338 
15.511 6.559 -67.511 
-6.905 3.978 -69.624 
-6.767 4.323 -69.802 
-3.208 9.053 -68.644 
-3.249 9.157 -68.561 
-11.253 -2.638 -74.496 
-11.242 -2.445 -74.728 
15.298 3.775 -71.180 
15.344 4.028 -71.320 
4.326 7.614 -63.946 
4.489 7.644 -64.009 
3.296 5.365 -65.618 
3.357 5.424 -65.873 
14.715 4.606 -66.969 
14.772 4.839 -67.106 
-12.343 2.882 -70.536 
-12.058 2.911 -70.566 
5.480 -12.187 -71.378 
5.676 -12.051 -71.460 
8.628 8.182 -73.907 
8.829 8.234 -74.072 
3.725 -10.987 -63.945 
3.726 -10.888 -63.835 
6.777 12.476 -65.248 
6.669 12.438 -65.140 
7.026 0.585 -63.969 
[...]
POINT_DATA 992 
SCALARS Umean double 1 
LOOKUP_TABLE default
0.10241 
0.10241 
0.07408 
0.07408 
0.12411 
0.12411 
0.05009 
0.05009 
0.13759 
0.13759 
0.22196 
0.22196 
0.20960 
0.20960 
0.33348 
0.33348 
0.19499 
0.19499 
0.23720 
0.23720 
0.22701 
0.22701 
0.27373 
0.27373 
0.06100 
0.06100 
0.06876 
0.06876 
0.14032 
0.14032 
0.17792 
0.17792 
0.29862 
0.29862 
0.19208 
0.19208 
0.09586 
0.09586 
0.05967 
0.05967 
0.20042 
0.20042 
0.16528 
0.16528 
0.21922 
0.21922 
0.18162 
0.18162 
0.20053 
0.20053 
0.18049 
0.18049 
0.12271 
0.12271 
0.13342 
0.13342 
0.13195 
0.13195 
0.12479 
0.12479 
0.12403 
0.12403 
0.08730 
0.08730 
0.25933 
0.25933 
0.16747 
0.16747 
0.08995 
0.08995 
0.10069 
0.10069 
0.07083 
0.07083 
0.14360 
0.14360 
0.22671 
0.22671 
0.11181 
0.11181 
0.02894 
0.02894 
0.22221 
0.22221 
0.27392 
0.27392 
0.08184 
0.08184 
0.20538 
0.20538 
0.10333 
0.10333 
0.09545 
0.09545 
0.24613 
0.24613 
0.21707 
0.21707 
0.12149 
0.12149 
0.15854 
0.15854 
0.09545 
0.09545 
0.16580 
0.16580 
0.19059 
0.19059 
0.10059 
0.10059 
0.18743 
0.18743 
0.15855 
0.15855 
0.17499 
0.17499 
0.12135 
0.12135 
0.19990 
0.19990 
0.19338 
0.19338 
0.09528 
0.09528 
0.12750 
0.12750 
0.11862 
0.11862 
0.24476 
0.24476 
0.15772 
0.15772 
0.04843 
0.04843 
0.09786 
0.09786 
0.14598 
0.14598 
0.27939 
0.27939 
0.24796 
0.24796 
0.09630 
0.09630 
0.04507 
0.04507 
0.14376 
0.14376 
0.11776 
0.11776 
0.10209 
0.10209 
0.28394 
0.28394 
0.20518 
0.20518 
0.25592 
0.25592 
0.14315 
0.14315 
0.09557 
0.09557 
0.12034 
0.12034 
0.29961 
0.29961 
0.14884 
0.14884 
0.14265 
0.14265 
0.09173 
0.09173 
0.13656 
0.13656 
0.11637 
0.11637 
0.09969 
0.09969 
0.14296 
0.14296 
0.11010 
0.11010 
0.13418 
0.13418 
0.20605 
0.20605 
0.27557 
0.27557 
0.25578 
0.25578 
0.22844 
0.22844 
0.11289 
0.11289 
0.17398 
0.17398 
0.11403 
0.11403 
0.24375 
0.24375 
0.08097 
0.08097 
0.23954 
0.23954 
0.09601 
0.09601 
0.08507 
0.08507 
0.14556 
0.14556 
0.15798 
0.15798 
0.10297 
0.10297 
0.17882 
0.17882 
0.17885 
0.17885 
0.20542 
0.20542 
0.07311 
0.07311 
0.17662 
0.17662 
0.08797 
0.08797 
0.10196 
0.10196 
0.12736 
0.12736 
0.13408 
0.13408 
0.11541 
0.11541 
0.14759 
0.14759 
0.16588 
0.16588 
0.18808 
0.18808 
0.11146 
0.11146 
0.19614 
0.19614 
0.10086 
0.10086 
0.19021 
0.19021 
0.20964 
0.20964 
0.11000 
0.11000 
0.15074 
0.15074 
0.14411 
0.14411 
0.17471 
0.17471 
0.18761 
0.18761 
0.12582 
0.12582 
0.14038 
0.14038 
0.14413 
0.14413 
0.28885 
0.28885 
0.17314 
0.17314 
0.12111 
0.12111 
0.16513 
0.16513 
0.11927 
0.11927 
0.24389 
0.24389 
0.30460 
0.30460 
0.06161 
0.06161 
0.23020 
0.23020 
0.14020 
0.14020 
0.16509 
0.16509 
0.10042 
0.10042 
0.09489 
0.09489 
0.13742 
0.13742 
0.15562 
0.15562 
0.15672 
0.15672 
0.08283 
0.08283 
0.04468 
0.04468 
0.27746 
0.27746 
0.12865 
0.12865 
0.19068 
0.19068 
0.14293 
0.14293 
0.22185 
0.22185 
0.09281 
0.09281 
0.17550 
0.17550 
0.32979 
0.32979 
0.20030 
0.20030 
0.27904 
0.27904 
0.19303 
0.19303 
0.11915 
0.11915 
0.04291 
0.04291 
0.19391 
0.19391 
0.15358 
0.15358 
0.09413 
0.09413 
0.34527 
0.34527 
0.21168 
0.21168 
0.12165 
0.12165 
0.09494 
0.09494 
0.11350 
0.11350 
0.29933 
0.29933 
0.04887 
0.04887 
0.19635 
0.19635 
0.20820 
0.20820 
0.17223 
0.17223 
0.19712 
0.19712 
0.15656 
0.15656 
0.12797 
0.12797 
0.19989 
0.19989 
0.15051 
0.15051 
0.22051 
0.22051 
0.28508 
0.28508 
0.19687 
0.19687 
0.19995 
0.19995 
0.11978 
0.11978 
0.33503 
0.33503 
0.14445 
0.14445 
0.16422 
0.16422 
0.17505 
0.17505 
0.15379 
0.15379 
0.07072 
0.07072 
0.23742 
0.23742 
0.20644 
0.20644 
0.15073 
0.15073 
0.14411 
0.14411 
0.10571 
0.10571 
0.08200 
0.08200 
0.19942 
0.19942 
0.20289 
0.20289 
0.06030 
0.06030 
0.13672 
0.13672 
0.09363 
0.09363 
0.17231 
0.17231 
0.05075 
0.05075 
0.11594 
0.11594 
0.05567 
0.05567 
0.17691 
0.17691 
0.20601 
0.20601 
0.06962 
0.06962 
0.15099 
0.15099 
0.14639 
0.14639 
0.08865 
0.08865 
0.13438 
0.13438 
0.13812 
0.13812 
0.14402 
0.14402 
0.12613 
0.12613 
0.13260 
0.13260 
0.07400 
0.07400 
0.07870 
0.07870 
0.19622 
0.19622 
0.19946 
0.19946 
0.22100 
0.22100 
0.07254 
0.07254 
0.07897 
0.07897 
0.08041 
0.08041 
0.10127 
0.10127 
0.15368 
0.15368 
0.11431 
0.11431 
0.22836 
0.22836 
0.13323 
0.13323 
0.17587 
0.17587 
0.12458 
0.12458 
0.23571 
0.23571 
0.13167 
0.13167 
0.12654 
0.12654 
0.11139 
0.11139 
0.20446 
0.20446 
0.18456 
0.18456 
0.11966 
0.11966 
0.10645 
0.10645 
0.24060 
0.24060 
0.10468 
0.10468 
0.11863 
0.11863 
0.32350 
0.32350 
0.04792 
0.04792 
0.13813 
0.13813 
0.12091 
0.12091 
0.22146 
0.22146 
0.07192 
0.07192 
0.22796 
0.22796 
0.14970 
0.14970 
0.16588 
0.16588 
0.13778 
0.13778 
0.23527 
0.23527 
0.28580 
0.28580 
0.12899 
0.12899 
0.15696 
0.15696 
0.34903 
0.34903 
0.12623 
0.12623 
0.26812 
0.26812 
0.18273 
0.18273 
0.10401 
0.10401 
0.13928 
0.13928 
0.10961 
0.10961 
0.17167 
0.17167 
0.07694 
0.07694 
0.02690 
0.02690 
0.09699 
0.09699 
0.12978 
0.12978 
0.07042 
0.07042 
0.16966 
0.16966 
0.20976 
0.20976 
0.13323 
0.13323 
0.08344 
0.08344 
0.18208 
0.18208 
0.10294 
0.10294 
0.13713 
0.13713 
0.12730 
0.12730 
0.06279 
0.06279 
0.16608 
0.16608 
0.09662 
0.09662 
0.08738 
0.08738 
0.19399 
0.19399 
0.18847 
0.18847 
0.06859 
0.06859 
0.23968 
0.23968 
0.13890 
0.13890 
0.34310 
0.34310 
0.06871 
0.06871 
0.22830 
0.22830 
0.14082 
0.14082 
0.07423 
0.07423 
0.03993 
0.03993 
0.14038 
0.14038 
0.18836 
0.18836 
0.04095 
0.04095 
0.18252 
0.18252 
0.11799 
0.11799 
0.16848 
0.16848 
0.10000 
0.10000 
0.10823 
0.10823 
0.12235 
0.12235 
0.06209 
0.06209 
0.11394 
0.11394 
0.24819 
0.24819 
0.09982 
0.09982 
0.17432 
0.17432 
0.10967 
0.10967 
0.21475 
0.21475 
0.18681 
0.18681 
0.21944 
0.21944 
0.12070 
0.12070 
0.09761 
0.09761 
0.19313 
0.19313 
0.21122 
0.21122 
0.11672 
0.11672 
0.24360 
0.24360 
0.23740 
0.23740 
0.06421 
0.06421 
0.15839 
0.15839 
0.12796 
0.12796 
0.11248 
0.11248 
0.11539 
0.11539 
0.25438 
0.25438 
0.24373 
0.24373 
0.14393 
0.14393 
0.15444 
0.15444 
0.19432 
0.19432 
0.17603 
0.17603 
0.13178 
0.13178 
0.10264 
0.10264 
0.10383 
0.10383 
0.13189 
0.13189 
0.11052 
0.11052 
0.07877 
0.07877 
0.22879 
0.22879 
0.14595 
0.14595 
0.05510 
0.05510 
0.15174 
0.15174 
0.13265 
0.13265 
0.10066 
0.10066 
0.11470 
0.11470 
0.30380 
0.30380 
0.08432 
0.08432 
0.13472 
0.13472 
0.16420 
0.16420 
0.11867 
0.11867 
0.10208 
0.10208 
0.12490 
0.12490 
0.13915 
0.13915 
0.10316 
0.10316 
0.15751 
0.15751 
0.23876 
0.23876 
0.31865 
0.31865 
0.06903 
0.06903 
0.19151 
0.19151 
0.14315 
0.14315 
0.19050 
0.19050 
0.16707 
0.16707 
0.11988 
0.11988 
0.07000 
0.07000 
0.06637 
0.06637 
0.21301 
0.21301 
0.01355 
0.01355 
0.10244 
0.10244 
0.31013 
0.31013 
0.22861 
0.22861 
0.17703 
0.17703 
0.05427 
0.05427 
0.05601 
0.05601 
0.10646 
0.10646 
0.07284 
0.07284 
0.09274 
0.09274 
0.16303 
0.16303 
0.16786 
0.16786 
0.11130 
0.11130 
0.08565 
0.08565 
0.14701 
0.14701 
0.13063 
0.13063 
0.07698 
0.07698 
0.10712 
0.10712 
0.07896 
0.07896 
0.16349 
0.16349 
0.10464 
0.10464 
0.16954 
0.16954 
0.19467 
0.19467 
0.27189 
0.27189 
0.11612 
0.11612 
0.10581 
0.10581 
0.15906 
0.15906 
0.27097 
0.27097 
0.31066 
0.31066 
0.12562 
0.12562 
0.08610 
0.08610 
0.17500 
0.17500 
0.07800 
0.07800 
0.24860 
0.24860 
0.21081 
0.21081 
0.13998 
0.13998 
0.20558 
0.20558 
0.09657 
0.09657 
0.16860 
0.16860 
0.08138 
0.08138 
0.15454 
0.15454 
0.19001 
0.19001 
0.08302 
0.08302 
0.18628 
0.18628 
0.12698 
0.12698 
0.15496 
0.15496 
0.19204 
0.19204 
0.08728 
0.08728 
0.09438 
0.09438 
0.11582 
0.11582 
0.07604 
0.07604 
0.18589 
0.18589 
0.14369 
0.14369 
0.12876 
0.12876 
0.05616 
0.05616 
0.23931 
0.23931 
0.25661 
0.25661 
0.11247 
0.11247 
0.11339 
0.11339 
0.18358 
0.18358 
0.15603 
0.15603 
0.26624 
0.26624 
0.09413 
0.09413 
0.18410 
0.18410 
0.16385 
0.16385 
0.19167 
0.19167 
0.07333 
0.07333 
0.09834 
0.09834 
0.11877 
0.11877 
0.10380 
0.10380 
0.14764 
0.14764 
0.12402 
0.12402 
0.11257 
0.11257 
0.12923 
0.12923 
0.06345 
0.06345 
0.17866 
0.17866 
0.15537 
0.15537 
0.09186 
0.09186 
0.08464 
0.08464 
0.24557 
0.24557 
0.26608 
0.26608 
0.13536 
0.13536 
0.18588 
0.18588 
0.13010 
0.13010 
0.19180 
0.19180 
0.15886 
0.15886 
0.13495 
0.13495 
0.19769 
0.19769 
0.09673 
0.09673 
0.08158 
0.08158 
0.15843 
0.15843 
0.10545 
0.10545 
0.06144 
0.06144 
0.14643 
0.14643 
0.14015 
0.14015 
0.20302 
0.20302 
0.13482 
0.13482 
0.07510 
0.07510 
0.10399 
0.10399 
0.20713 
0.20713 
0.10747 
0.10747 
0.14808 
0.14808 
0.14960 
0.14960 
0.11744 
0.11744 
0.15760 
0.15760 
0.35848 
0.35848 
0.21186 
0.21186 
0.21479 
0.21479 
0.03676 
0.03676 
0.15699 
0.15699 
0.20478 
0.20478 
0.11796 
0.11796 
0.10850 
0.10850 
0.21302 
0.21302 
0.16489 
0.16489 
0.22925 
0.22925 
0.17955 
0.17955 
0.11387 
0.11387 
0.15195 
0.15195 
0.25941 
0.25941 
0.13938 
0.13938 
0.19594 
0.19594 
0.25447 
0.25447 
0.22775 
0.22775 
0.17624 
0.17624 
0.15739 
0.15739 
0.16846 
0.16846 
0.11947 
0.11947 
0.13877 
0.13877 
0.07333 
0.07333 
0.08277 
0.08277 
SCALARS Umean_X double 1 
LOOKUP_TABLE default
0.07850 
0.07850 
-0.01300 
-0.01300 
0.05500 
0.05500 
-0.01150 
-0.01150 
-0.00800 
-0.00800 
0.00400 
0.00400 
0.05200 
0.05200 
0.09100 
0.09100 
-0.00600 
-0.00600 
0.06950 
0.06950 
0.03950 
0.03950 
0.09900 
0.09900 
-0.00000 
-0.00000 
0.01600 
0.01600 
-0.00800 
-0.00800 
0.01800 
0.01800 
0.07300 
0.07300 
0.05750 
0.05750 
-0.04050 
-0.04050 
-0.03800 
-0.03800 
-0.01300 
-0.01300 
-0.01000 
-0.01000 
0.11150 
0.11150 
-0.01550 
-0.01550 
0.05250 
0.05250 
0.04350 
0.04350 
-0.07050 
-0.07050 
0.01200 
0.01200 
-0.00150 
-0.00150 
-0.04200 
-0.04200 
-0.01000 
-0.01000 
0.04550 
0.04550 
0.13000 
0.13000 
0.01300 
0.01300 
0.07050 
0.07050 
0.04350 
0.04350 
0.04600 
0.04600 
-0.00300 
-0.00300 
0.12550 
0.12550 
0.07500 
0.07500 
-0.00550 
-0.00550 
0.11450 
0.11450 
0.10700 
0.10700 
-0.04300 
-0.04300 
0.10500 
0.10500 
-0.06500 
-0.06500 
0.02050 
0.02050 
0.13800 
0.13800 
0.10500 
0.10500 
-0.06050 
-0.06050 
0.07800 
0.07800 
-0.02400 
-0.02400 
0.07250 
0.07250 
0.07500 
0.07500 
0.09100 
0.09100 
0.10650 
0.10650 
0.11350 
0.11350 
-0.04400 
-0.04400 
0.07550 
0.07550 
0.05950 
0.05950 
-0.02000 
-0.02000 
0.04750 
0.04750 
0.03550 
0.03550 
0.03600 
0.03600 
-0.03300 
-0.03300 
0.02950 
0.02950 
0.02100 
0.02100 
-0.02350 
-0.02350 
0.06450 
0.06450 
0.15900 
0.15900 
0.12700 
0.12700 
0.00900 
0.00900 
-0.00950 
-0.00950 
0.11250 
0.11250 
0.06450 
0.06450 
0.01000 
0.01000 
0.05950 
0.05950 
0.12800 
0.12800 
0.12150 
0.12150 
0.00450 
0.00450 
-0.05000 
-0.05000 
-0.03900 
-0.03900 
0.06200 
0.06200 
0.08800 
0.08800 
0.08300 
0.08300 
0.04300 
0.04300 
0.08050 
0.08050 
0.03550 
0.03550 
0.07750 
0.07750 
0.11450 
0.11450 
-0.04300 
-0.04300 
0.03650 
0.03650 
0.07800 
0.07800 
0.09750 
0.09750 
0.06100 
0.06100 
0.13600 
0.13600 
-0.04000 
-0.04000 
0.08650 
0.08650 
0.01250 
0.01250 
0.09350 
0.09350 
-0.02250 
-0.02250 
0.04200 
0.04200 
0.02850 
0.02850 
-0.04450 
-0.04450 
0.06900 
0.06900 
-0.01500 
-0.01500 
0.03050 
0.03050 
0.01700 
0.01700 
0.08650 
0.08650 
0.04200 
0.04200 
-0.02500 
-0.02500 
0.02000 
0.02000 
-0.03750 
-0.03750 
0.08250 
0.08250 
0.08900 
0.08900 
0.05500 
0.05500 
0.06050 
0.06050 
0.09400 
0.09400 
0.01100 
0.01100 
0.06550 
0.06550 
0.07650 
0.07650 
0.13300 
0.13300 
0.07950 
0.07950 
0.15850 
0.15850 
0.04250 
0.04250 
0.01350 
0.01350 
0.01750 
0.01750 
-0.00550 
-0.00550 
0.07000 
0.07000 
0.06600 
0.06600 
0.04550 
0.04550 
-0.02950 
-0.02950 
0.10350 
0.10350 
0.20600 
0.20600 
0.12600 
0.12600 
-0.01150 
-0.01150 
0.02500 
0.02500 
0.04950 
0.04950 
0.10100 
0.10100 
0.11550 
0.11550 
0.05600 
0.05600 
0.03150 
0.03150 
-0.03200 
-0.03200 
0.13050 
0.13050 
0.07850 
0.07850 
-0.03650 
-0.03650 
0.00850 
0.00850 
0.06200 
0.06200 
0.09300 
0.09300 
-0.04850 
-0.04850 
0.01250 
0.01250 
0.15950 
0.15950 
0.01950 
0.01950 
0.10750 
0.10750 
0.06600 
0.06600 
0.10550 
0.10550 
-0.04900 
-0.04900 
0.10800 
0.10800 
0.16400 
0.16400 
0.06900 
0.06900 
0.09600 
0.09600 
0.09850 
0.09850 
0.08900 
0.08900 
0.01150 
0.01150 
0.05150 
0.05150 
0.07200 
0.07200 
-0.07550 
-0.07550 
0.12900 
0.12900 
0.05600 
0.05600 
-0.06950 
-0.06950 
0.08450 
0.08450 
0.02850 
0.02850 
0.11750 
0.11750 
0.00450 
0.00450 
0.04350 
0.04350 
0.13550 
0.13550 
0.10850 
0.10850 
0.12300 
0.12300 
0.08950 
0.08950 
-0.01350 
-0.01350 
0.03250 
0.03250 
0.11850 
0.11850 
-0.01350 
-0.01350 
-0.04850 
-0.04850 
0.07800 
0.07800 
0.09300 
0.09300 
0.09200 
0.09200 
0.08850 
0.08850 
0.10800 
0.10800 
-0.02400 
-0.02400 
0.13550 
0.13550 
-0.03150 
-0.03150 
0.03300 
0.03300 
-0.01900 
-0.01900 
0.09150 
0.09150 
0.00150 
0.00150 
0.06500 
0.06500 
0.04850 
0.04850 
0.08200 
0.08200 
0.09200 
0.09200 
0.13200 
0.13200 
0.01600 
0.01600 
0.09850 
0.09850 
0.03350 
0.03350 
0.06350 
0.06350 
0.03200 
0.03200 
-0.05600 
-0.05600 
-0.00250 
-0.00250 
0.04850 
0.04850 
0.06900 
0.06900 
-0.02050 
-0.02050 
0.00550 
0.00550 
0.02300 
0.02300 
0.08150 
0.08150 
0.03050 
0.03050 
0.02850 
0.02850 
0.14250 
0.14250 
0.09800 
0.09800 
0.10050 
0.10050 
0.00050 
0.00050 
-0.05400 
-0.05400 
0.02500 
0.02500 
0.09850 
0.09850 
0.07800 
0.07800 
0.04950 
0.04950 
0.04050 
0.04050 
0.07200 
0.07200 
-0.05900 
-0.05900 
-0.02800 
-0.02800 
0.05950 
0.05950 
0.12100 
0.12100 
0.11300 
0.11300 
0.14850 
0.14850 
0.06750 
0.06750 
0.05350 
0.05350 
0.08750 
0.08750 
-0.01850 
-0.01850 
0.08450 
0.08450 
-0.02050 
-0.02050 
0.13150 
0.13150 
0.10950 
0.10950 
0.06350 
0.06350 
0.11850 
0.11850 
0.05000 
0.05000 
0.02200 
0.02200 
0.12700 
0.12700 
-0.04050 
-0.04050 
0.09500 
0.09500 
0.05850 
0.05850 
0.10800 
0.10800 
0.04950 
0.04950 
0.18100 
0.18100 
0.09550 
0.09550 
0.06900 
0.06900 
0.13000 
0.13000 
0.12500 
0.12500 
0.15750 
0.15750 
0.02250 
0.02250 
0.11550 
0.11550 
0.11700 
0.11700 
0.09150 
0.09150 
0.05550 
0.05550 
0.13500 
0.13500 
-0.09600 
-0.09600 
0.01000 
0.01000 
0.07150 
0.07150 
0.10600 
0.10600 
-0.03750 
-0.03750 
0.00100 
0.00100 
0.05850 
0.05850 
0.01450 
0.01450 
-0.01950 
-0.01950 
0.04200 
0.04200 
-0.03550 
-0.03550 
0.03950 
0.03950 
-0.04050 
-0.04050 
-0.14050 
-0.14050 
0.03950 
0.03950 
0.07150 
0.07150 
0.06450 
0.06450 
-0.01200 
-0.01200 
0.11800 
0.11800 
0.07450 
0.07450 
-0.00950 
-0.00950 
0.04650 
0.04650 
0.04650 
0.04650 
-0.02850 
-0.02850 
-0.04950 
-0.04950 
0.09450 
0.09450 
0.10800 
0.10800 
0.01400 
0.01400 
0.11900 
0.11900 
0.00250 
0.00250 
-0.01100 
-0.01100 
-0.01350 
-0.01350 
0.07300 
0.07300 
0.10000 
0.10000 
-0.02400 
-0.02400 
0.05500 
0.05500 
0.08350 
0.08350 
0.08100 
0.08100 
0.05500 
0.05500 
0.08000 
0.08000 
0.10450 
0.10450 
0.03150 
0.03150 
-0.10500 
-0.10500 
0.11900 
0.11900 
0.08150 
0.08150 
0.09450 
0.09450 
0.04250 
0.04250 
0.12300 
0.12300 
0.00800 
0.00800 
0.05850 
0.05850 
0.08600 
0.08600 
0.05250 
0.05250 
0.04850 
0.04850 
0.09800 
0.09800 
0.08950 
0.08950 
0.11350 
0.11350 
0.05050 
0.05050 
0.05250 
0.05250 
0.03750 
0.03750 
0.08900 
0.08900 
-0.08500 
-0.08500 
0.06850 
0.06850 
0.09450 
0.09450 
0.11300 
0.11300 
0.03350 
0.03350 
0.12200 
0.12200 
0.09850 
0.09850 
0.05450 
0.05450 
-0.03400 
-0.03400 
0.04700 
0.04700 
0.01950 
0.01950 
-0.05800 
-0.05800 
0.10950 
0.10950 
0.07050 
0.07050 
0.12900 
0.12900 
0.05850 
0.05850 
0.04050 
0.04050 
0.00650 
0.00650 
0.09300 
0.09300 
-0.05600 
-0.05600 
0.01800 
0.01800 
0.12550 
0.12550 
0.07600 
0.07600 
0.06450 
0.06450 
-0.03450 
-0.03450 
0.05950 
0.05950 
0.04700 
0.04700 
0.10400 
0.10400 
0.06150 
0.06150 
0.06000 
0.06000 
0.05350 
0.05350 
0.00400 
0.00400 
0.15950 
0.15950 
-0.06300 
-0.06300 
0.11750 
0.11750 
-0.07250 
-0.07250 
0.12200 
0.12200 
-0.02000 
-0.02000 
0.08450 
0.08450 
0.06800 
0.06800 
-0.02900 
-0.02900 
0.13400 
0.13400 
-0.00350 
-0.00350 
0.01550 
0.01550 
0.14550 
0.14550 
0.03250 
0.03250 
0.05300 
0.05300 
-0.00900 
-0.00900 
0.01250 
0.01250 
0.08950 
0.08950 
0.01550 
0.01550 
-0.06850 
-0.06850 
0.08950 
0.08950 
0.05500 
0.05500 
0.06600 
0.06600 
0.07650 
0.07650 
0.03550 
0.03550 
0.04250 
0.04250 
0.06300 
0.06300 
0.05050 
0.05050 
-0.04800 
-0.04800 
-0.00350 
-0.00350 
0.04300 
0.04300 
0.06900 
0.06900 
0.15800 
0.15800 
0.14200 
0.14200 
0.11500 
0.11500 
0.06700 
0.06700 
0.11800 
0.11800 
-0.05950 
-0.05950 
0.15850 
0.15850 
-0.07700 
-0.07700 
-0.00800 
-0.00800 
0.11750 
0.11750 
-0.02400 
-0.02400 
0.05500 
0.05500 
0.14750 
0.14750 
0.09650 
0.09650 
0.15350 
0.15350 
0.08000 
0.08000 
0.06300 
0.06300 
-0.01400 
-0.01400 
-0.02100 
-0.02100 
0.02250 
0.02250 
0.07750 
0.07750 
-0.06700 
-0.06700 
-0.03950 
-0.03950 
-0.09300 
-0.09300 
0.14050 
0.14050 
-0.00400 
-0.00400 
0.05750 
0.05750 
-0.02650 
-0.02650 
0.04650 
0.04650 
0.07000 
0.07000 
-0.01500 
-0.01500 
0.05200 
0.05200 
0.04400 
0.04400 
0.17050 
0.17050 
0.13150 
0.13150 
-0.04650 
-0.04650 
-0.01750 
-0.01750 
0.00200 
0.00200 
0.14850 
0.14850 
0.10600 
0.10600 
0.02650 
0.02650 
0.05950 
0.05950 
0.09950 
0.09950 
0.03650 
0.03650 
0.03300 
0.03300 
0.05250 
0.05250 
0.07800 
0.07800 
0.06300 
0.06300 
0.00250 
0.00250 
0.04000 
0.04000 
-0.00400 
-0.00400 
0.08900 
0.08900 
0.00450 
0.00450 
0.09300 
0.09300 
0.02800 
0.02800 
-0.06000 
-0.06000 
0.01300 
0.01300 
0.06750 
0.06750 
0.05350 
0.05350 
0.08950 
0.08950 
0.09700 
0.09700 
-0.06700 
-0.06700 
0.05050 
0.05050 
0.10150 
0.10150 
0.00700 
0.00700 
-0.07350 
-0.07350 
0.01850 
0.01850 
0.04200 
0.04200 
0.11800 
0.11800 
0.09900 
0.09900 
0.02750 
0.02750 
0.07700 
0.07700 
0.04150 
0.04150 
-0.00100 
-0.00100 
0.00750 
0.00750 
0.03250 
0.03250 
0.04350 
0.04350 
0.12350 
0.12350 
-0.06050 
-0.06050 
0.01750 
0.01750 
0.02150 
0.02150 
0.00550 
0.00550 
0.13250 
0.13250 
0.16750 
0.16750 
0.02800 
0.02800 
0.10200 
0.10200 
0.03350 
0.03350 
0.00150 
0.00150 
0.04250 
0.04250 
0.04950 
0.04950 
0.06350 
0.06350 
0.07400 
0.07400 
0.04900 
0.04900 
0.14100 
0.14100 
0.15550 
0.15550 
0.09850 
0.09850 
0.13250 
0.13250 
0.09000 
0.09000 
0.07050 
0.07050 
0.04650 
0.04650 
-0.02750 
-0.02750 
0.12400 
0.12400 
0.10750 
0.10750 
0.09600 
0.09600 
-0.02050 
-0.02050 
-0.06250 
-0.06250 
0.00850 
0.00850 
0.01900 
0.01900 
0.02850 
0.02850 
SCALARS Umean_Y double 1 
LOOKUP_TABLE default
0.05600 
0.05600 
0.05700 
0.05700 
0.05450 
0.05450 
0.04850 
0.04850 
0.10200 
0.10200 
0.11950 
0.11950 
0.08900 
0.08900 
0.05250 
0.05250 
0.11750 
0.11750 
0.12150 
0.12150 
0.13050 
0.13050 
0.21000 
0.21000 
0.06100 
0.06100 
0.01350 
0.01350 
0.08800 
0.08800 
0.08900 
0.08900 
0.10200 
0.10200 
0.14350 
0.14350 
0.07550 
0.07550 
0.04600 
0.04600 
0.08400 
0.08400 
0.15500 
0.15500 
0.02900 
0.02900 
0.12050 
0.12050 
0.09250 
0.09250 
0.11400 
0.11400 
-0.02200 
-0.02200 
0.11700 
0.11700 
0.03750 
0.03750 
0.11750 
0.11750 
0.12350 
0.12350 
0.07450 
0.07450 
0.12700 
0.12700 
0.08450 
0.08450 
0.03950 
0.03950 
-0.00750 
-0.00750 
-0.01200 
-0.01200 
0.04600 
0.04600 
0.13200 
0.13200 
0.05450 
0.05450 
0.01350 
0.01350 
0.06900 
0.06900 
0.17400 
0.17400 
0.06850 
0.06850 
0.04750 
0.04750 
0.07300 
0.07300 
0.08700 
0.08700 
0.15400 
0.15400 
0.12450 
0.12450 
0.07450 
0.07450 
-0.02050 
-0.02050 
0.08150 
0.08150 
0.04550 
0.04550 
0.06300 
0.06300 
0.00550 
0.00550 
0.09500 
0.09500 
0.10850 
0.10850 
0.12150 
0.12150 
0.00050 
0.00050 
0.12750 
0.12750 
0.04500 
0.04500 
0.05400 
0.05400 
0.03450 
0.03450 
0.10950 
0.10950 
0.09650 
0.09650 
0.09800 
0.09800 
0.00350 
0.00350 
0.07600 
0.07600 
0.06950 
0.06950 
0.08850 
0.08850 
0.02500 
0.02500 
0.08150 
0.08150 
-0.00700 
-0.00700 
0.08900 
0.08900 
0.09400 
0.09400 
0.10150 
0.10150 
0.15250 
0.15250 
0.14200 
0.14200 
0.10550 
0.10550 
0.11000 
0.11000 
0.08100 
0.08100 
0.08050 
0.08050 
0.07450 
0.07450 
-0.12000 
-0.12000 
0.06800 
0.06800 
0.03300 
0.03300 
0.07850 
0.07850 
0.10900 
0.10900 
-0.04150 
-0.04150 
0.06250 
0.06250 
-0.08700 
-0.08700 
0.07000 
0.07000 
0.02900 
0.02900 
0.09650 
0.09650 
0.15000 
0.15000 
0.11750 
0.11750 
0.09350 
0.09350 