# vtk DataFile Version 2.1 
Trajects from timestep 43 with color option 
ASCII 
 
DATASET POLYDATA POINTS 1028 float 
2.092 6.770 -70.485 
1.962 6.888 -70.606 
0.677 4.823 -70.659 
0.670 4.948 -70.781 
3.728 2.963 -69.007 
3.713 3.136 -69.228 
1.592 3.871 -71.409 
1.578 3.974 -71.575 
-0.568 0.836 -71.421 
-0.517 1.012 -71.558 
4.549 -5.641 -73.066 
4.518 -5.544 -73.206 
1.539 -4.486 -70.877 
1.516 -4.260 -70.843 
4.923 -3.135 -70.544 
5.011 -3.099 -70.694 
-11.026 5.406 -72.106 
-11.101 5.436 -72.132 
0.402 3.560 -68.552 
0.393 3.771 -68.689 
1.544 3.560 -69.316 
1.501 3.715 -69.419 
4.099 10.490 -69.830 
3.977 10.416 -69.823 
-3.442 3.423 -68.454 
-3.395 3.714 -68.589 
6.784 -1.930 -70.479 
6.843 -1.804 -70.693 
-0.249 8.508 -68.173 
-0.396 8.640 -68.169 
3.015 -0.753 -74.973 
2.984 -0.741 -75.239 
0.529 -4.518 -70.282 
0.571 -4.286 -70.234 
5.941 8.590 -70.299 
5.881 8.635 -70.383 
1.336 10.244 -68.762 
1.198 10.326 -68.836 
-3.439 -0.406 -71.534 
-3.299 -0.217 -71.547 
-1.717 10.665 -69.860 
-1.841 10.666 -69.867 
8.747 3.690 -68.992 
8.762 3.896 -69.100 
-2.756 5.681 -70.212 
-2.814 5.873 -70.342 
5.723 -3.405 -71.057 
5.754 -3.335 -71.233 
-2.416 -4.624 -69.899 
-2.416 -4.395 -69.920 
-15.007 10.554 -72.912 
-15.120 10.632 -72.929 
-3.263 5.927 -69.459 
-3.306 6.183 -69.562 
-10.334 2.197 -71.240 
-10.314 2.139 -71.341 
7.320 2.914 -72.105 
7.194 2.933 -72.287 
-13.333 -1.113 -73.899 
-13.308 -1.050 -73.983 
-4.396 11.566 -66.446 
-4.368 11.856 -66.584 
-5.772 1.715 -68.761 
-5.726 1.788 -68.693 
7.860 7.959 -72.092 
7.702 7.967 -72.275 
-1.416 4.619 -72.815 
-1.472 4.741 -73.005 
1.711 10.251 -64.653 
1.655 10.466 -64.757 
5.213 2.343 -68.532 
5.228 2.417 -68.617 
3.165 -6.002 -70.357 
3.092 -5.766 -70.405 
-6.275 -1.017 -67.091 
-6.276 -0.676 -67.148 
-5.471 8.793 -72.999 
-5.549 8.939 -73.091 
-8.363 10.192 -74.125 
-8.340 10.255 -74.144 
7.297 6.513 -70.100 
7.143 6.618 -70.167 
-7.883 -5.848 -67.126 
-7.809 -5.673 -67.046 
-4.640 10.368 -68.961 
-4.716 10.653 -68.980 
-3.338 1.738 -71.817 
-3.235 1.955 -71.874 
-4.738 -5.283 -66.664 
-4.621 -5.047 -66.560 
-7.189 7.153 -70.807 
-7.261 7.261 -71.051 
-7.256 9.724 -66.797 
-7.241 9.941 -66.832 
-5.181 -3.642 -67.842 
-5.112 -3.377 -67.833 
0.575 8.318 -72.154 
0.339 8.262 -72.272 
5.417 0.890 -65.544 
5.567 1.112 -65.617 
-8.219 -9.137 -66.219 
-8.287 -8.772 -66.239 
-5.165 -10.662 -69.146 
-5.206 -10.422 -69.224 
-3.933 -5.765 -67.279 
-3.816 -5.463 -67.054 
-8.153 -2.914 -69.762 
-8.198 -2.816 -69.638 
-0.682 -4.861 -69.059 
-0.551 -4.521 -69.146 
-1.232 -0.718 -71.637 
-1.131 -0.560 -71.712 
6.476 12.007 -71.065 
6.292 12.004 -71.182 
14.706 -4.072 -72.378 
14.692 -4.003 -72.431 
1.513 -10.091 -73.168 
1.544 -9.966 -73.213 
1.809 5.398 -71.366 
1.728 5.490 -71.510 
3.854 9.823 -67.333 
3.861 10.075 -67.489 
-5.458 1.149 -65.204 
-5.300 1.437 -65.126 
-0.872 2.715 -68.903 
-0.815 2.943 -69.002 
4.110 7.484 -74.035 
4.087 7.492 -74.113 
-6.720 -0.304 -67.990 
-6.680 -0.013 -68.083 
12.549 -3.710 -71.565 
12.502 -3.657 -71.577 
9.616 -7.979 -71.395 
9.593 -7.898 -71.472 
6.318 8.899 -72.069 
6.182 8.946 -72.242 
-7.168 -9.767 -66.599 
-7.180 -9.454 -66.624 
-7.400 -0.192 -62.168 
-7.346 0.018 -62.221 
-8.154 4.910 -68.785 
-8.095 4.975 -68.920 
-0.242 -4.496 -65.831 
0.009 -4.276 -65.760 
-8.967 -3.598 -67.051 
-8.910 -3.454 -66.925 
16.860 10.332 -72.438 
16.785 10.396 -72.698 
-12.189 -0.127 -68.896 
-12.171 -0.100 -68.904 
-9.702 1.822 -67.174 
-9.677 2.111 -67.129 
3.206 11.350 -68.214 
3.074 11.466 -68.312 
-6.167 -4.209 -67.988 
-6.124 -4.034 -67.745 
-10.561 9.346 -63.751 
-10.534 9.492 -63.836 
1.533 12.032 -70.572 
1.472 12.103 -70.731 
-3.317 3.370 -66.829 
-3.353 3.745 -66.962 
5.486 -5.073 -65.552 
5.532 -4.927 -65.765 
8.111 2.480 -68.534 
8.172 2.623 -68.651 
0.233 -0.076 -65.575 
0.412 0.205 -65.787 
-11.863 1.844 -63.474 
-11.798 2.059 -63.444 
-11.730 8.162 -75.620 
-11.844 8.170 -75.670 
12.091 -4.091 -69.057 
12.131 -3.912 -69.107 
-6.430 11.010 -61.989 
-6.419 11.344 -61.992 
9.540 8.189 -63.787 
9.505 8.413 -63.879 
7.741 9.529 -70.635 
7.625 9.514 -70.736 
12.364 0.299 -69.282 
12.411 0.474 -69.380 
8.063 3.417 -68.247 
8.092 3.587 -68.374 
-1.044 6.446 -70.920 
-1.054 6.575 -71.091 
7.450 -4.450 -70.838 
7.439 -4.399 -70.940 
-13.386 2.006 -70.561 
-13.338 2.032 -70.599 
-10.824 1.658 -69.867 
-10.821 1.657 -69.895 
11.636 -0.643 -69.823 
11.634 -0.529 -69.901 
9.495 4.161 -66.542 
9.501 4.334 -66.605 
8.020 9.364 -65.446 
7.891 9.480 -65.535 
-11.452 -5.716 -69.127 
-11.409 -5.530 -69.076 
-0.042 -10.988 -70.544 
0.102 -10.768 -70.665 
-6.439 1.900 -63.864 
-6.280 2.084 -63.767 
-4.566 -4.236 -69.394 
-4.546 -4.109 -69.291 
12.470 8.980 -73.801 
12.349 9.004 -74.106 
9.121 11.621 -67.619 
9.183 11.699 -67.762 
-10.834 12.882 -67.665 
-10.797 12.903 -67.613 
1.229 -2.372 -63.627 
1.533 -2.089 -63.703 
-1.042 -7.217 -67.695 
-0.966 -6.903 -67.808 
-5.840 4.151 -74.115 
-5.895 4.161 -74.212 
10.642 -3.663 -69.807 
10.605 -3.652 -69.859 
-2.435 2.620 -65.632 
-2.337 2.901 -65.899 
1.426 -6.169 -65.185 
1.565 -5.917 -65.334 
-2.697 -6.453 -73.513 
-2.756 -6.430 -73.458 
-3.157 11.991 -71.656 
-3.114 12.064 -71.729 
-9.424 -7.016 -68.088 
-9.191 -6.728 -67.988 
-8.986 -6.151 -65.433 
-8.875 -6.022 -65.383 
-2.926 -2.549 -73.932 
-2.948 -2.431 -73.883 
-13.037 7.283 -71.089 
-13.119 7.283 -71.088 
11.545 10.784 -70.467 
11.494 10.781 -70.637 
2.622 -4.917 -76.509 
2.610 -4.901 -76.595 
-10.415 3.318 -67.222 
-10.403 3.539 -67.274 
-12.730 1.762 -70.466 
-12.733 1.741 -70.544 
-9.980 -9.129 -69.163 
-9.956 -8.870 -69.265 
-14.831 12.088 -72.981 
-14.947 12.080 -72.997 
12.174 -5.232 -68.984 
12.247 -5.084 -69.059 
8.723 -4.786 -72.960 
8.686 -4.708 -73.038 
11.304 8.840 -70.011 
11.212 8.848 -70.249 
3.088 -6.619 -62.967 
3.238 -6.395 -63.177 
10.957 -0.883 -65.501 
11.028 -0.577 -65.590 
-5.296 -8.930 -64.259 
-5.213 -8.744 -64.539 
-6.657 8.985 -66.462 
-6.684 9.238 -66.537 
-14.714 -10.762 -76.927 
-14.662 -10.689 -76.805 
7.740 -4.228 -74.940 
7.806 -4.150 -74.965 
-15.495 3.878 -70.367 
-15.554 3.891 -70.524 
-5.925 -0.741 -67.503 
-5.878 -0.397 -67.502 
1.812 5.068 -64.415 
1.891 5.368 -64.409 
13.250 -1.414 -63.425 
13.334 -1.123 -63.479 
-7.880 1.805 -64.149 
-7.829 1.956 -64.066 
-12.124 3.378 -69.047 
-12.067 3.335 -69.091 
-11.071 6.343 -63.682 
-11.038 6.600 -63.948 
-0.500 -6.326 -66.323 
-0.411 -6.013 -66.476 
-3.410 1.691 -66.169 
-3.330 1.933 -66.358 
14.036 0.822 -65.722 
14.136 1.038 -65.801 
8.014 11.206 -65.750 
7.970 11.305 -65.822 
2.533 6.840 -63.483 
2.575 7.226 -63.617 
8.710 -4.447 -69.666 
8.792 -4.383 -69.781 
-5.254 11.672 -65.360 
-5.193 12.076 -65.423 
-6.354 7.742 -63.701 
-6.274 8.025 -63.656 
-4.087 -5.002 -64.505 
-3.869 -4.680 -64.608 
8.409 -12.336 -67.580 
8.553 -12.382 -67.657 
2.833 9.457 -63.784 
2.718 9.713 -63.789 
12.857 -4.502 -69.846 
12.945 -4.356 -69.913 
-13.000 10.415 -65.359 
-13.019 10.461 -65.333 
6.122 -13.117 -66.665 
6.390 -13.047 -66.590 
6.416 2.253 -63.897 
6.605 2.461 -63.861 
-8.952 12.204 -69.615 
-9.039 12.263 -69.636 
12.474 8.052 -64.156 
12.553 8.220 -64.333 
-11.912 9.664 -65.487 
-11.906 9.687 -65.519 
2.801 -10.079 -75.752 
2.858 -10.019 -75.714 
9.784 10.667 -67.236 
9.684 10.640 -67.361 
3.578 -10.943 -65.499 
3.795 -10.816 -65.471 
-14.162 -1.364 -70.619 
-14.154 -1.300 -70.603 
7.248 9.013 -68.259 
7.120 9.233 -68.415 
10.979 4.095 -64.215 
11.005 4.296 -64.273 
-7.406 5.254 -61.626 
-7.476 5.491 -61.712 
-2.201 -2.022 -62.025 
-1.975 -1.607 -62.311 
7.132 12.833 -63.171 
7.010 12.980 -63.421 
-5.067 -8.075 -73.038 
-4.967 -8.058 -73.038 
3.985 -1.928 -70.727 
4.085 -1.740 -70.929 
6.008 -3.040 -64.789 
6.069 -2.839 -64.988 
-3.641 -4.763 -70.444 
-3.588 -4.639 -70.348 
9.274 6.844 -66.912 
9.235 7.026 -66.936 
-8.189 6.524 -64.929 
-8.180 6.700 -64.986 
-4.683 10.337 -74.601 
-4.800 10.456 -74.838 
-2.599 7.620 -66.386 
-2.669 7.831 -66.435 
2.824 -10.013 -68.155 
3.092 -9.860 -68.194 
-7.588 0.140 -68.515 
-7.576 0.298 -68.517 
-6.853 12.247 -64.919 
-6.782 12.482 -65.067 
6.940 0.082 -69.537 
7.083 0.260 -69.709 
-13.680 -8.593 -66.405 
-13.810 -8.705 -66.495 
-7.523 -0.918 -75.890 
-7.474 -0.915 -75.951 
6.877 2.169 -71.761 
6.815 2.183 -71.919 
-7.621 -8.251 -64.823 
-7.501 -8.065 -64.938 
-4.469 -9.081 -64.175 
-4.389 -8.907 -64.316 
-6.149 3.140 -76.163 
-6.154 3.184 -76.174 
5.455 4.417 -62.539 
5.682 4.688 -62.491 
9.543 -12.281 -67.113 
9.642 -12.251 -67.147 
13.637 -5.510 -65.675 
13.638 -5.276 -65.750 
6.995 -0.437 -62.777 
7.050 -0.299 -62.749 
11.174 11.868 -66.833 
11.149 11.750 -66.884 
-11.041 -6.996 -68.679 
-10.934 -6.820 -68.605 
11.222 -4.200 -69.934 
11.195 -4.126 -69.959 
-0.588 -9.828 -67.844 
-0.451 -9.538 -68.043 
-7.355 6.848 -72.918 
-7.392 6.856 -72.965 
14.118 1.919 -69.982 
14.134 2.032 -70.169 
8.367 -2.625 -72.236 
8.422 -2.549 -72.425 
10.889 6.537 -72.427 
10.753 6.493 -72.637 
7.707 -7.831 -71.751 
7.647 -7.770 -71.688 
-1.446 10.184 -62.368 
-1.528 10.381 -62.344 
-5.654 -8.728 -69.954 
-5.579 -8.501 -69.953 
9.664 2.245 -72.043 
9.651 2.357 -72.018 
17.942 -7.013 -71.494 
17.801 -6.982 -71.648 
-0.167 6.877 -75.937 
-0.253 6.900 -76.023 
-12.212 5.220 -68.758 
-12.261 5.153 -68.781 
13.405 -6.295 -71.081 
13.518 -6.155 -71.109 
-3.419 -12.261 -65.682 
-3.247 -12.118 -65.884 
-2.129 8.624 -63.208 
-2.275 8.871 -63.228 
-7.954 -3.360 -68.356 
-7.934 -3.240 -68.218 
9.216 2.859 -63.415 
9.292 3.153 -63.349 
5.254 8.154 -69.957 
5.211 8.152 -70.097 
-0.351 10.356 -61.404 
-0.416 10.586 -61.456 
2.246 2.769 -60.262 
2.325 3.021 -60.196 
3.703 12.548 -61.928 
3.631 12.682 -62.227 
14.895 8.625 -72.827 
14.839 8.737 -73.087 
1.598 4.814 -73.046 
1.486 4.878 -73.156 
-2.285 -1.529 -71.164 
-2.172 -1.334 -71.233 
-7.196 5.139 -76.502 
-7.169 5.145 -76.280 
-0.790 8.847 -60.319 
-0.839 9.075 -60.336 
-0.778 1.530 -68.774 
-0.710 1.686 -68.949 
7.617 -5.907 -72.627 
7.569 -5.816 -72.634 
6.663 4.773 -66.767 
6.777 4.891 -66.750 
[...]
POINT_DATA 1028 
SCALARS Umean double 1 
LOOKUP_TABLE default
0.10661 
0.10661 
0.08740 
0.08740 
0.14053 
0.14053 
0.09793 
0.09793 
0.11440 
0.11440 
0.08656 
0.08656 
0.11485 
0.11485 
0.08880 
0.08880 
0.04243 
0.04243 
0.12587 
0.12587 
0.09550 
0.09550 
0.07143 
0.07143 
0.16211 
0.16211 
0.12763 
0.12763 
0.09880 
0.09880 
0.13403 
0.13403 
0.12030 
0.12030 
0.05630 
0.05630 
0.08838 
0.08838 
0.11778 
0.11778 
0.06210 
0.06210 
0.11654 
0.11654 
0.11951 
0.11951 
0.09596 
0.09596 
0.11498 
0.11498 
0.06918 
0.06918 
0.13964 
0.13964 
0.05909 
0.05909 
0.11109 
0.11109 
0.05397 
0.05397 
0.16119 
0.16119 
0.05493 
0.05493 
0.12095 
0.12095 
0.11632 
0.11632 
0.12266 
0.12266 
0.05685 
0.05685 
0.12583 
0.12583 
0.17287 
0.17287 
0.09469 
0.09469 
0.03485 
0.03485 
0.09903 
0.09903 
0.10308 
0.10308 
0.14779 
0.14779 
0.12344 
0.12344 
0.14160 
0.14160 
0.13819 
0.13819 
0.11016 
0.11016 
0.13699 
0.13699 
0.13487 
0.13487 
0.13885 
0.13885 
0.18591 
0.18591 
0.12783 
0.12783 
0.19718 
0.19718 
0.08217 
0.08217 
0.18730 
0.18730 
0.10098 
0.10098 
0.10903 
0.10903 
0.04406 
0.04406 
0.06821 
0.06821 
0.09455 
0.09455 
0.14823 
0.14823 
0.16881 
0.16881 
0.12751 
0.12751 
0.04086 
0.04086 
0.15405 
0.15405 
0.03592 
0.03592 
0.05705 
0.05705 
0.11251 
0.11251 
0.15711 
0.15711 
0.11161 
0.11161 
0.08052 
0.08052 
0.17062 
0.17062 
0.09983 
0.09983 
0.13903 
0.13903 
0.01671 
0.01671 
0.14677 
0.14677 
0.10060 
0.10060 
0.15126 
0.15126 
0.08554 
0.08554 
0.09225 
0.09225 
0.19976 
0.19976 
0.13115 
0.13115 
0.09729 
0.09729 
0.19745 
0.19745 
0.11330 
0.11330 
0.06237 
0.06237 
0.09505 
0.09505 
0.16710 
0.16710 
0.12234 
0.12234 
0.07727 
0.07727 
0.10300 
0.10300 
0.10709 
0.10709 
0.10722 
0.10722 
0.05728 
0.05728 
0.03326 
0.03326 
0.01409 
0.01409 
0.06907 
0.06907 
0.09211 
0.09211 
0.09749 
0.09749 
0.09880 
0.09880 
0.14472 
0.14472 
0.13091 
0.13091 
0.08237 
0.08237 
0.16450 
0.16450 
0.08714 
0.08714 
0.03359 
0.03359 
0.21112 
0.21112 
0.17113 
0.17113 
0.05598 
0.05598 
0.03238 
0.03238 
0.19991 
0.19991 
0.16204 
0.16204 
0.04194 
0.04194 
0.05592 
0.05592 
0.19185 
0.19185 
0.08869 
0.08869 
0.06482 
0.06482 
0.04100 
0.04100 
0.08876 
0.08876 
0.04415 
0.04415 
0.11368 
0.11368 
0.04042 
0.04042 
0.13970 
0.13970 
0.05869 
0.05869 
0.09063 
0.09063 
0.05817 
0.05817 
0.12764 
0.12764 
0.17086 
0.17086 
0.16325 
0.16325 
0.17312 
0.17312 
0.13263 
0.13263 
0.07569 
0.07569 
0.05260 
0.05260 
0.08411 
0.08411 
0.17360 
0.17360 
0.15514 
0.15514 
0.15383 
0.15383 
0.08985 
0.08985 
0.04193 
0.04193 
0.18567 
0.18567 
0.17979 
0.17979 
0.15865 
0.15865 
0.12540 
0.12540 
0.06504 
0.06504 
0.20538 
0.20538 
0.07753 
0.07753 
0.20670 
0.20670 
0.14876 
0.14876 
0.20113 
0.20113 
0.08482 
0.08482 
0.14034 
0.14034 
0.09158 
0.09158 
0.02808 
0.02808 
0.14348 
0.14348 
0.14167 
0.14167 
0.05360 
0.05360 
0.12825 
0.12825 
0.01993 
0.01993 
0.04553 
0.04553 
0.08117 
0.08117 
0.12649 
0.12649 
0.03323 
0.03323 
0.14926 
0.14926 
0.10541 
0.10541 
0.13083 
0.13083 
0.27618 
0.27618 
0.15732 
0.15732 
0.05072 
0.05072 
0.14675 
0.14675 
0.14467 
0.14467 
0.08277 
0.08277 
0.09384 
0.09384 
0.09261 
0.09261 
0.14493 
0.14493 
0.11382 
0.11382 
0.15553 
0.15553 
0.07923 
0.07923 
0.14333 
0.14333 
0.14293 
0.14293 
0.09688 
0.09688 
0.03915 
0.03915 
0.08515 
0.08515 
0.12472 
0.12472 
0.11891 
0.11891 
0.02281 
0.02281 
0.17838 
0.17838 
0.05444 
0.05444 
0.12286 
0.12286 
0.07559 
0.07559 
0.06548 
0.06548 
0.10943 
0.10943 
0.04132 
0.04132 
0.18873 
0.18873 
0.03017 
0.03017 
0.10954 
0.10954 
0.10550 
0.10550 
0.12702 
0.12702 
0.05313 
0.05313 
0.10737 
0.10737 
0.11954 
0.11954 
0.05775 
0.05775 
0.10554 
0.10554 
0.06189 
0.06189 
0.04307 
0.04307 
0.09104 
0.09104 
0.15070 
0.15070 
0.14381 
0.14381 
0.09198 
0.09198 
0.15538 
0.15538 
0.07323 
0.07323 
0.12230 
0.12230 
0.13611 
0.13611 
0.16774 
0.16774 
0.14429 
0.14429 
0.08476 
0.08476 
0.11785 
0.11785 
0.11186 
0.11186 
0.11691 
0.11691 
0.12205 
0.12205 
0.05156 
0.05156 
0.08248 
0.08248 
0.16645 
0.16645 
0.11659 
0.11659 
0.04066 
0.04066 
0.08157 
0.08157 
0.14002 
0.14002 
0.05965 
0.05965 
0.06604 
0.06604 
0.07082 
0.07082 
0.09530 
0.09530 
0.13427 
0.13427 
0.07337 
0.07337 
0.09781 
0.09781 
0.08702 
0.08702 
0.12654 
0.12654 
0.08966 
0.08966 
0.15625 
0.15625 
0.08021 
0.08021 
0.14145 
0.14145 
0.17758 
0.17758 
0.04000 
0.04000 
0.13587 
0.13587 
0.08261 
0.08261 
0.15296 
0.15296 
0.04173 
0.04173 
0.08737 
0.08737 
0.05399 
0.05399 
0.06268 
0.06268 
0.16806 
0.16806 
0.13465 
0.13465 
0.08860 
0.08860 
0.11833 
0.11833 
0.16630 
0.16630 
0.12105 
0.12105 
0.12314 
0.12314 
0.05983 
0.05983 
0.12977 
0.12977 
0.12359 
0.12359 
0.14018 
0.14018 
0.10599 
0.10599 
0.18104 
0.18104 
0.16327 
0.16327 
0.13716 
0.13716 
0.06726 
0.06726 
0.12831 
0.12831 
0.08344 
0.08344 
0.12831 
0.12831 
0.11055 
0.11055 
0.11824 
0.11824 
0.08392 
0.08392 
0.12537 
0.12537 
0.14398 
0.14398 
0.23096 
0.23096 
0.20824 
0.20824 
0.19322 
0.19322 
0.09921 
0.09921 
0.14714 
0.14714 
0.16541 
0.16541 
0.18263 
0.18263 
0.12674 
0.12674 
0.09712 
0.09712 
0.16919 
0.16919 
0.13070 
0.13070 
0.09757 
0.09757 
0.02208 
0.02208 
0.03662 
0.03662 
0.10127 
0.10127 
0.14335 
0.14335 
0.07783 
0.07783 
0.16820 
0.16820 
0.06659 
0.06659 
0.04873 
0.04873 
0.05875 
0.05875 
0.10280 
0.10280 
0.12716 
0.12716 
0.10226 
0.10226 
0.10124 
0.10124 
0.05895 
0.05895 
0.11298 
0.11298 
0.11883 
0.11883 
0.10040 
0.10040 
0.12902 
0.12902 
0.08727 
0.08727 
0.06220 
0.06220 
0.10905 
0.10905 
0.06107 
0.06107 
0.09120 
0.09120 
0.13907 
0.13907 
0.15845 
0.15845 
0.12050 
0.12050 
0.18614 
0.18614 
0.09087 
0.09087 
0.12066 
0.12066 
0.07025 
0.07025 
0.10110 
0.10110 
0.23962 
0.23962 
0.11706 
0.11706 
0.04353 
0.04353 
0.13288 
0.13288 
0.06026 
0.06026 
0.10565 
0.10565 
0.05251 
0.05251 
0.18825 
0.18825 
0.09231 
0.09231 
0.07991 
0.07991 
0.07778 
0.07778 
0.10928 
0.10928 
0.06353 
0.06353 
0.12462 
0.12462 
0.10171 
0.10171 
0.08172 
0.08172 
0.11036 
0.11036 
0.03854 
0.03854 
0.06799 
0.06799 
0.18827 
0.18827 
0.11316 
0.11316 
0.10553 
0.10553 
0.10354 
0.10354 
0.14999 
0.14999 
0.15550 
0.15550 
0.10287 
0.10287 
0.19131 
0.19131 
0.05785 
0.05785 
0.07100 
0.07100 
0.15574 
0.15574 
0.10669 
0.10669 
0.06642 
0.06642 
0.09851 
0.09851 
0.04286 
0.04286 
0.08659 
0.08659 
0.07926 
0.07926 
0.19545 
0.19545 
0.03500 
0.03500 
0.08169 
0.08169 
0.11875 
0.11875 
0.09489 
0.09489 
0.19305 
0.19305 
0.16428 
0.16428 
0.15841 
0.15841 
0.16652 
0.16652 
0.09482 
0.09482 
0.07824 
0.07824 
0.15326 
0.15326 
0.19032 
0.19032 
0.13069 
0.13069 
0.11988 
0.11988 
0.21240 
0.21240 
0.07073 
0.07073 
0.11306 
0.11306 
0.08502 
0.08502 
0.07023 
0.07023 
0.08359 
0.08359 
0.11154 
0.11154 
0.08372 
0.08372 
0.00911 
0.00911 
0.20124 
0.20124 
0.14467 
0.14467 
0.25829 
0.25829 
0.11089 
0.11089 
0.15307 
0.15307 
0.18630 
0.18630 
0.06797 
0.06797 
0.14496 
0.14496 
0.21008 
0.21008 
0.17939 
0.17939 
0.14314 
0.14314 
0.16861 
0.16861 
0.19379 
0.19379 
0.07335 
0.07335 
0.13564 
0.13564 
0.06299 
0.06299 
0.15013 
0.15013 
0.10617 
0.10617 
0.12215 
0.12215 
0.09819 
0.09819 
0.10065 
0.10065 
0.12556 
0.12556 
0.15263 
0.15263 
0.11503 
0.11503 
0.12266 
0.12266 
0.09076 
0.09076 
0.12922 
0.12922 
0.12765 
0.12765 
0.15399 
0.15399 
0.19145 
0.19145 
0.14774 
0.14774 
0.09630 
0.09630 
0.03407 
0.03407 
0.04518 
0.04518 
0.13811 
0.13811 
0.22942 
0.22942 
0.22226 
0.22226 
0.08937 
0.08937 
0.07805 
0.07805 
0.13731 
0.13731 
0.18990 
0.18990 
0.12655 
0.12655 
0.08678 
0.08678 
0.12358 
0.12358 
0.06425 
0.06425 
0.11442 
0.11442 
0.23757 
0.23757 
0.12021 
0.12021 
0.07643 
0.07643 
0.10860 
0.10860 
0.15974 
0.15974 
0.17455 
0.17455 
0.14430 
0.14430 
0.15044 
0.15044 
0.06591 
0.06591 
0.20177 
0.20177 
0.09051 
0.09051 
0.09891 
0.09891 
0.11429 
0.11429 
0.09845 
0.09845 
0.15239 
0.15239 
0.12027 
0.12027 
0.07340 
0.07340 
0.12477 
0.12477 
0.08281 
0.08281 
0.04164 
0.04164 
0.05468 
0.05468 
0.08923 
0.08923 
0.10543 
0.10543 
0.14934 
0.14934 
0.20072 
0.20072 
0.08550 
0.08550 
0.09869 
0.09869 
0.22359 
0.22359 
0.22204 
0.22204 
0.12117 
0.12117 
0.07900 
0.07900 
0.10175 
0.10175 
0.13241 
0.13241 
0.07775 
0.07775 
0.10422 
0.10422 
0.08570 
0.08570 
0.08852 
0.08852 
0.17074 
0.17074 
0.11159 
0.11159 
0.11984 
0.11984 
0.15321 
0.15321 
0.06224 
0.06224 
0.08083 
0.08083 
0.14335 
0.14335 
0.10632 
0.10632 
0.11200 
0.11200 
0.05364 
0.05364 
0.14171 
0.14171 
0.09984 
0.09984 
0.17221 
0.17221 
0.06411 
0.06411 
0.13990 
0.13990 
0.08607 
0.08607 
0.08548 
0.08548 
0.06981 
0.06981 
0.06195 
0.06195 
0.07582 
0.07582 
0.10771 
0.10771 
0.17231 
0.17231 
0.10014 
0.10014 
0.03393 
0.03393 
0.09021 
0.09021 
0.12060 
0.12060 
0.15880 
0.15880 
0.09550 
0.09550 
0.13288 
0.13288 
0.07829 
0.07829 
0.15403 
0.15403 
0.11635 
0.11635 
0.22173 
0.22173 
0.05384 
0.05384 
0.10055 
0.10055 
0.10721 
0.10721 
0.08997 
0.08997 
0.12338 
0.12338 
0.04201 
0.04201 
0.04817 
0.04817 
0.05386 
0.05386 
0.10482 
0.10482 
0.14831 
0.14831 
0.11161 
0.11161 
0.07464 
0.07464 
0.19031 
0.19031 
0.13091 
0.13091 
0.03662 
0.03662 
0.08796 
0.08796 
0.04400 
0.04400 
0.14853 
0.14853 
0.10852 
0.10852 
0.13269 
0.13269 
0.08576 
0.08576 
0.04437 
0.04437 
0.13680 
0.13680 
SCALARS Umean_X double 1 
LOOKUP_TABLE default
-0.06500 
-0.06500 
-0.00350 
-0.00350 
-0.00750 
-0.00750 
-0.00700 
-0.00700 
0.02550 
0.02550 
-0.01550 
-0.01550 
-0.01150 
-0.01150 
0.04400 
0.04400 
-0.03750 
-0.03750 
-0.00450 
-0.00450 
-0.02150 
-0.02150 
-0.06100 
-0.06100 
0.02350 
0.02350 
0.02950 
0.02950 
-0.07350 
-0.07350 
-0.01550 
-0.01550 
0.02100 
0.02100 
-0.03000 
-0.03000 
-0.06900 
-0.06900 
0.07000 
0.07000 
-0.06200 
-0.06200 
0.00750 
0.00750 
-0.02900 
-0.02900 
0.01550 
0.01550 
-0.00000 
-0.00000 
-0.05650 
-0.05650 
-0.02150 
-0.02150 
0.01000 
0.01000 
-0.06300 
-0.06300 
0.01250 
0.01250 
0.01400 
0.01400 
0.02300 
0.02300 
-0.07900 
-0.07900 
-0.02800 
-0.02800 
-0.02800 
-0.02800 
0.00750 
0.00750 
-0.03650 
-0.03650 
-0.00050 
-0.00050 
-0.03900 
-0.03900 
0.01150 
0.01150 
-0.07700 
-0.07700 
0.03700 
0.03700 
-0.03800 
-0.03800 
0.05150 
0.05150 
0.05850 
0.05850 
-0.03600 
-0.03600 
0.00750 
0.00750 
0.03450 
0.03450 
-0.11800 
-0.11800 
0.07500 
0.07500 
-0.03400 
-0.03400 
-0.02050 
-0.02050 
0.05850 
0.05850 
-0.02250 
-0.02250 
0.06550 
0.06550 
0.05050 
0.05050 
-0.09200 
-0.09200 
-0.00700 
-0.00700 
0.01550 
0.01550 
-0.04050 
-0.04050 
0.00350 
0.00350 
0.07900 
0.07900 
0.02850 
0.02850 
-0.01150 
-0.01150 
0.02000 
0.02000 
-0.02350 
-0.02350 
-0.01150 
-0.01150 
-0.06800 
-0.06800 
-0.00600 
-0.00600 
0.02700 
0.02700 
0.02950 
0.02950 
0.12550 
0.12550 
0.02850 
0.02850 
-0.03750 
-0.03750 
0.00900 
0.00900 
0.01250 
0.01250 
-0.06600 
-0.06600 
0.02150 
0.02150 
0.01350 
0.01350 
-0.03050 
-0.03050 
-0.01800 
-0.01800 
0.02300 
0.02300 
0.03050 
0.03050 
0.08950 
0.08950 
0.03250 
0.03250 
-0.05700 
-0.05700 
0.02000 
0.02000 
0.00550 
0.00550 
-0.01750 
-0.01750 
-0.05800 
-0.05800 
0.02350 
0.02350 
0.01450 
0.01450 
-0.00500 
-0.00500 
-0.00550 
-0.00550 
0.02400 
0.02400 
0.00150 
0.00150 
-0.00100 
-0.00100 
0.00300 
0.00300 
-0.06450 
-0.06450 
0.02150 
0.02150 
0.07200 
0.07200 
0.07950 
0.07950 
0.01000 
0.01000 
-0.06050 
-0.06050 
0.03100 
0.03100 
0.01850 
0.01850 
0.15200 
0.15200 
0.03800 
0.03800 
-0.02750 
-0.02750 
-0.01850 
-0.01850 
0.04900 
0.04900 
0.06950 
0.06950 
-0.02950 
-0.02950 
0.02150 
0.02150 
0.11650 
0.11650 
0.05550 
0.05550 
-0.01100 
-0.01100 
-0.04100 
-0.04100 
-0.02550 
-0.02550 
-0.00600 
-0.00600 
0.00600 
0.00600 
-0.00150 
-0.00150 
0.01200 
0.01200 
-0.05800 
-0.05800 
0.03650 
0.03650 
-0.01850 
-0.01850 
-0.04600 
-0.04600 
0.07500 
0.07500 
0.03550 
0.03550 
0.04150 
0.04150 
-0.01350 
-0.01350 
0.02600 
0.02600 
0.03300 
0.03300 
-0.02950 
-0.02950 
0.02350 
0.02350 
0.03950 
0.03950 
0.04200 
0.04200 
0.02550 
0.02550 
0.02850 
0.02850 
0.01650 
0.01650 
0.04450 
0.04450 
0.04000 
0.04000 
0.05000 
0.05000 
-0.02200 
-0.02200 
0.02100 
0.02100 
0.04100 
0.04100 
0.03050 
0.03050 
0.04000 
0.04000 
0.10900 
0.10900 
0.07200 
0.07200 
-0.05750 
-0.05750 
0.04400 
0.04400 
-0.00950 
-0.00950 
0.13400 
0.13400 
0.09450 
0.09450 
-0.04350 
-0.04350 
0.03950 
0.03950 
0.00300 
0.00300 
0.02850 
0.02850 
-0.05000 
-0.05000 
0.10850 
0.10850 
0.00400 
0.00400 
-0.06400 
-0.06400 
0.01300 
0.01300 
-0.03500 
-0.03500 
0.11300 
0.11300 
-0.06100 
-0.06100 
0.05000 
0.05000 
0.05000 
0.05000 
0.03050 
0.03050 
0.02650 
0.02650 
-0.01950 
-0.01950 
0.00450 
0.00450 
-0.05850 
-0.05850 
-0.03500 
-0.03500 
0.13400 
0.13400 
0.00600 
0.00600 
0.03550 
0.03550 
0.07150 
0.07150 
-0.06500 
-0.06500 
0.02450 
0.02450 
-0.03100 
-0.03100 
0.06000 
0.06000 
0.04000 
0.04000 
-0.00250 
-0.00250 
0.11350 
0.11350 
0.04950 
0.04950 
0.00050 
0.00050 
0.02750 
0.02750 
-0.01250 
-0.01250 
0.05350 
0.05350 
-0.01350 
-0.01350 
0.06850 
0.06850 
-0.01850 
-0.01850 
0.00800 
0.00800 
0.02750 
0.02750 
-0.06800 
-0.06800 
-0.03000 
-0.03000 
-0.04100 
-0.04100 
0.03750 
0.03750 
-0.00650 
-0.00650 
-0.07050 
-0.07050 
-0.04300 
-0.04300 
-0.02450 
-0.02450 
0.05650 
0.05650 
0.08600 
0.08600 
-0.07300 
-0.07300 
0.01000 
0.01000 
0.03800 
0.03800 
-0.02150 
-0.02150 
-0.03250 
-0.03250 
0.03950 
0.03950 
-0.03600 
-0.03600 
-0.02800 
-0.02800 
-0.05600 
-0.05600 
0.05650 
0.05650 
0.01350 
0.01350 
-0.02450 
-0.02450 
0.03400 
0.03400 
-0.02400 
-0.02400 
0.05700 
0.05700 
0.10500 
0.10500 
-0.03900 
-0.03900 
0.03550 
0.03550 
0.01300 
0.01300 
0.06850 
0.06850 
0.00600 
0.00600 
0.00450 
0.00450 
0.05050 
0.05050 
-0.01500 
-0.01500 
0.08550 
0.08550 
0.02900 
0.02900 
-0.03800 
-0.03800 
-0.08350 
-0.08350 
0.08150 
0.08150 
-0.00300 
-0.00300 
0.04900 
0.04900 
-0.04850 
-0.04850 
0.08150 
0.08150 
0.05600 
0.05600 
-0.02800 
-0.02800 
0.09000 
0.09000 
0.04650 
0.04650 
-0.04350 
-0.04350 
0.02100 
0.02100 
0.00600 
0.00600 
-0.01400 
-0.01400 
0.01400 
0.01400 
0.06600 
0.06600 
0.04300 
0.04300 
0.04100 
0.04100 
-0.02050 
-0.02050 
-0.04300 
-0.04300 
0.03950 
0.03950 
-0.07450 
-0.07450 
-0.04050 
-0.04050 
-0.03650 
-0.03650 
0.07500 
0.07500 
-0.02350 
-0.02350 
0.03550 
0.03550 
0.03200 
0.03200 
0.06100 
0.06100 
-0.02100 
-0.02100 
0.01700 
0.01700 
0.06250 
0.06250 
0.00200 
0.00200 
0.00350 
0.00350 
-0.02450 
-0.02450 
-0.04450 
-0.04450 
-0.05350 
-0.05350 
0.02600 
0.02600 
0.08550 
0.08550 
0.08150 
0.08150 
0.00300 
0.00300 
0.12050 
0.12050 
0.04100 
0.04100 
-0.08700 
-0.08700 
0.08950 
0.08950 
0.05350 
0.05350 
-0.07550 
-0.07550 
-0.04350 
-0.04350 
0.02300 
0.02300 
0.06000 
0.06000 
-0.00450 
-0.00450 
0.01700 
0.01700 
-0.03000 
-0.03000 
0.04800 
0.04800 
0.03900 
0.03900 
0.00200 
0.00200 
0.04300 
0.04300 
0.01800 
0.01800 
-0.02200 
-0.02200 
0.01500 
0.01500 
0.02650 
0.02650 
0.04050 
0.04050 
-0.00100 
-0.00100 
0.03850 
0.03850 
0.02300 
0.02300 
0.07500 
0.07500 
0.00100 
0.00100 
-0.01350 
-0.01350 
-0.00450 
-0.00450 
0.00550 
0.00550 
0.04050 
0.04050 
0.01850 
0.01850 
-0.02250 
-0.02250 
0.02600 
0.02600 
0.02700 
0.02700 
-0.04650 
-0.04650 
0.04550 
0.04550 
0.06100 
0.06100 
0.01150 
0.01150 
0.00400 
0.00400 
0.03300 
0.03300 
0.04600 
0.04600 
0.09000 
0.09000 
0.01950 
0.01950 
-0.00450 
-0.00450 
0.05550 
0.05550 
0.01250 
0.01250 
0.10400 
0.10400 
-0.03150 
-0.03150 
0.09500 
0.09500 
0.03000 
0.03000 
-0.00000 
-0.00000 
0.00100 
0.00100 
-0.04050 
-0.04050 
-0.02300 
-0.02300 
-0.06850 
-0.06850 
-0.03500 
-0.03500 
-0.04500 
-0.04500 
0.06300 
0.06300 
0.00750 
0.00750 
0.01950 
0.01950 
0.14150 
0.14150 
0.00800 
0.00800 
-0.01200 
-0.01200 
-0.04400 
-0.04400 
0.04350 
0.04350 
0.08450 
0.08450 
-0.03600 
-0.03600 
0.04450 
0.04450 
0.03200 
0.03200 
0.06500 
0.06500 
0.08500 
0.08500 
-0.00500 
-0.00500 
-0.03900 
-0.03900 
0.04500 
0.04500 
-0.04000 
-0.04000 
0.01700 
0.01700 
0.03150 
0.03150 
0.01600 
0.01600 
0.03000 
0.03000 
-0.01300 
-0.01300 
-0.02250 
-0.02250 
0.02400 
0.02400 
0.10650 
0.10650 
0.00050 
0.00050 
-0.11100 
-0.11100 
0.04200 
0.04200 
0.09450 
0.09450 
-0.04600 
-0.04600 
0.06350 
0.06350 
0.06600 
0.06600 
0.05400 
0.05400 
0.03550 
0.03550 
0.00050 
0.00050 
-0.04700 
-0.04700 
0.00750 
0.00750 
-0.00850 
-0.00850 
-0.03050 
-0.03050 
0.04950 
0.04950 
0.01600 
0.01600 
0.02150 
0.02150 
-0.00700 
-0.00700 
-0.07250 
-0.07250 
0.12050 
0.12050 
0.07300 
0.07300 
-0.01800 
-0.01800 
0.04800 
0.04800 
-0.02200 
-0.02200 
-0.01700 
-0.01700 
0.07450 
0.07450 
0.01400 
0.01400 
0.15200 
0.15200 
0.02500 
0.02500 
0.11600 
0.11600 
0.11900 
0.11900 
0.03700 
0.03700 
0.02650 
0.02650 
0.01550 
0.01550 
0.02100 
0.02100 
0.04600 
0.04600 
0.02750 
0.02750 
0.01500 
0.01500 
-0.08150 
-0.08150 
-0.04850 
-0.04850 
0.07200 
0.07200 
-0.01050 
-0.01050 
-0.05250 
-0.05250 
0.06050 
0.06050 
-0.09400 
-0.09400 
0.03500 
0.03500 
-0.03900 
-0.03900 
0.00150 
0.00150 
0.13500 
0.13500 
0.01650 
0.01650 
-0.02000 
-0.02000 
0.00500 
0.00500 
-0.07600 
-0.07600 
0.04350 
0.04350 
0.09750 
0.09750 
-0.00500 
-0.00500 
0.06850 
0.06850 
-0.10650 
-0.10650 
0.13400 
0.13400 
0.05850 
0.05850 
0.06800 
0.06800 
0.09700 
0.09700 
-0.02850 
-0.02850 
-0.00900 
-0.00900 
0.10050 
0.10050 
0.06050 
0.06050 
-0.02150 
-0.02150 
0.00550 
0.00550 
0.09400 
0.09400 
0.13250 
0.13250 
0.04050 
0.04050 
0.02050 
0.02050 
0.01350 
0.01350 
0.14300 
0.14300 
-0.05050 
-0.05050 
-0.05450 
-0.05450 
-0.00450 
-0.00450 
0.02500 
0.02500 
-0.04400 
-0.04400 
0.02200 
0.02200 
-0.03500 
-0.03500 
-0.05150 
-0.05150 
-0.01550 
-0.01550 
-0.02900 
-0.02900 
0.00900 
0.00900 
-0.07300 
-0.07300 
-0.02000 
-0.02000 
-0.02200 
-0.02200 
0.08750 
0.08750 
0.05300 
0.05300 
0.00250 
0.00250 
0.15450 
0.15450 
0.16450 
0.16450 
0.01000 
0.01000 
0.03300 
0.03300 
-0.03300 
-0.03300 
0.05800 
0.05800 
-0.06450 
-0.06450 
0.06900 
0.06900 
0.00700 
0.00700 
0.05600 
0.05600 
-0.01350 
-0.01350 
-0.00050 
-0.00050 
0.02550 
0.02550 
-0.03100 
-0.03100 
-0.04050 
-0.04050 
-0.03900 
-0.03900 
0.04400 
0.04400 
0.03800 
0.03800 
-0.02150 
-0.02150 
-0.01600 
-0.01600 
0.05600 
0.05600 
-0.00250 
-0.00250 
-0.00400 
-0.00400 
-0.04600 
-0.04600 
0.06800 
0.06800 
-0.01050 
-0.01050 
0.03200 
0.03200 
-0.03450 
-0.03450 
-0.00000 
-0.00000 
0.06050 
0.06050 
-0.06100 
-0.06100 
-0.02300 
-0.02300 
0.00450 
0.00450 
0.01750 
0.01750 
0.04800 
0.04800 
0.02300 
0.02300 
0.00750 
0.00750 
-0.00600 
-0.00600 
0.00050 
0.00050 
0.05550 
0.05550 
0.03700 
0.03700 
-0.10300 
-0.10300 
0.05100 
0.05100 
0.00300 
0.00300 
-0.05450 
-0.05450 
0.05250 
0.05250 
-0.06250 
-0.06250 
-0.09150 
-0.09150 
-0.03650 
-0.03650 
-0.03450 
-0.03450 
0.01450 
0.01450 
-0.02950 
-0.02950 
0.04150 
0.04150 
0.03550 
0.03550 
-0.03700 
-0.03700 
-0.03250 
-0.03250 
-0.00250 
-0.00250 
0.01750 
0.01750 
-0.04200 
-0.04200 
-0.01000 
-0.01000 
0.01600 
0.01600 
-0.07100 
-0.07100 
-0.03850 
-0.03850 
0.04100 
0.04100 
0.01650 
0.01650 
-0.05600 
-0.05600 
SCALARS Umean_Y double 1 
LOOKUP_TABLE default
0.05900 
0.05900 
0.06250 
0.06250 
0.08650 
0.08650 
0.05150 
0.05150 
0.08800 
0.08800 
0.04850 
0.04850 
0.11300 
0.11300 
0.01800 
0.01800 
0.01500 
0.01500 
0.10550 
0.10550 
0.07750 
0.07750 
-0.03700 
-0.03700 
0.14550 
0.14550 
0.06300 
0.06300 
0.06600 
0.06600 
0.00600 
0.00600 
0.11600 
0.11600 
0.02250 
0.02250 
0.04100 
0.04100 
0.09450 
0.09450 
0.00050 
0.00050 
0.10300 
0.10300 
0.09600 
0.09600 
0.03500 
0.03500 
0.11450 
0.11450 
0.03900 
0.03900 
0.12800 
0.12800 
-0.02900 
-0.02900 
0.00950 
0.00950 
0.03150 
0.03150 
0.14500 
0.14500 
0.03650 
0.03650 
0.00400 
0.00400 
0.06100 
0.06100 
0.10750 
0.10750 
0.03700 
0.03700 
0.11800 
0.11800 
0.17050 
0.17050 
0.07300 
0.07300 
0.03150 
0.03150 
0.05250 
0.05250 
0.08750 
0.08750 
0.14250 
0.14250 
0.10850 
0.10850 
0.11800 
0.11800 
0.05400 
0.05400 
0.10850 
0.10850 
0.13250 
0.13250 
-0.02800 
-0.02800 
0.11100 
0.11100 
0.18250 