# vtk DataFile Version 2.1 
Trajects from timestep 25 with color option 
ASCII 
 
DATASET POLYDATA POINTS 168 float 
-1.009 4.203 -68.148 
-1.024 4.319 -68.257 
4.523 5.198 -69.285 
4.367 5.253 -69.333 
-5.076 -3.193 -71.760 
-5.053 -3.056 -71.814 
0.187 9.354 -63.947 
0.156 9.597 -64.028 
-8.194 10.963 -72.380 
-8.243 10.900 -72.523 
-11.551 -3.977 -67.983 
-11.433 -3.717 -67.904 
11.008 4.533 -70.492 
10.870 4.634 -70.545 
-8.028 4.414 -66.735 
-7.963 4.602 -66.841 
-1.487 2.154 -65.542 
-1.510 2.374 -65.682 
2.485 12.923 -64.990 
2.593 13.048 -65.062 
-10.113 6.504 -62.436 
-10.062 6.669 -62.453 
4.349 1.320 -71.647 
4.337 1.386 -71.802 
3.608 3.786 -70.340 
3.496 3.849 -70.388 
14.294 4.107 -69.586 
14.277 4.107 -69.731 
7.569 1.697 -66.357 
7.588 1.715 -66.430 
8.413 10.903 -68.200 
8.385 10.888 -68.302 
-1.013 7.865 -61.994 
-0.966 8.027 -62.056 
9.724 11.348 -69.019 
9.574 11.388 -69.265 
-4.485 -3.038 -68.637 
-4.486 -2.866 -68.735 
-1.147 8.206 -72.244 
-1.189 8.216 -72.462 
-6.281 0.246 -70.059 
-6.253 0.350 -69.966 
-9.226 -8.396 -70.569 
-9.205 -8.341 -70.294 
-9.005 -8.084 -72.455 
-8.889 -7.866 -72.148 
-6.346 4.209 -67.416 
-6.391 4.447 -67.610 
2.709 0.191 -76.734 
2.733 0.163 -76.825 
5.241 -2.021 -75.580 
5.306 -2.095 -75.860 
9.309 1.300 -65.459 
9.310 1.461 -65.522 
6.933 -5.409 -69.294 
6.981 -5.391 -69.354 
12.503 10.585 -68.351 
12.460 10.671 -68.410 
-11.825 -4.456 -74.377 
-11.851 -4.496 -74.390 
-7.620 -9.335 -67.510 
-7.406 -9.114 -67.440 
4.612 3.540 -75.393 
4.585 3.596 -75.572 
-13.243 -8.068 -66.983 
-13.228 -7.821 -66.790 
-11.157 9.336 -71.246 
-11.202 9.262 -71.264 
13.033 -0.272 -69.595 
13.013 -0.172 -69.697 
11.101 -6.023 -67.879 
11.206 -5.815 -67.971 
9.599 -2.363 -73.956 
9.719 -2.320 -74.087 
-11.886 0.699 -75.677 
-11.975 0.801 -75.794 
-5.052 -11.195 -70.443 
-4.944 -10.947 -70.165 
-6.056 9.149 -65.591 
-6.081 9.413 -65.546 
15.082 8.219 -67.020 
15.005 8.261 -67.232 
0.121 -12.148 -76.641 
0.210 -12.114 -76.499 
9.730 -2.551 -62.059 
9.793 -2.330 -62.217 
3.177 -9.987 -71.841 
3.266 -9.889 -71.893 
9.762 -10.759 -72.488 
9.722 -10.590 -72.517 
0.493 3.097 -60.420 
0.417 3.299 -60.571 
-1.126 -11.352 -74.311 
-1.160 -11.394 -74.245 
15.058 -4.086 -66.135 
15.172 -3.872 -66.271 
-9.058 -2.983 -69.501 
-9.082 -2.794 -69.601 
-2.543 9.444 -69.808 
-2.657 9.583 -69.919 
-5.217 -8.929 -64.582 
-4.977 -8.680 -64.647 
13.073 8.163 -66.088 
12.996 8.232 -66.276 
-3.783 5.966 -60.915 
-3.843 6.257 -61.046 
-9.968 9.943 -72.233 
-9.927 9.895 -72.249 
-3.009 8.397 -67.879 
-2.991 8.694 -68.015 
5.001 -1.376 -70.015 
5.115 -1.330 -70.220 
11.900 -4.794 -73.785 
12.019 -4.852 -73.727 
-1.153 2.835 -75.050 
-1.182 2.933 -75.134 
-5.266 5.863 -64.829 
-5.192 6.220 -64.923 
-7.712 -0.505 -65.007 
-7.700 -0.352 -64.993 
5.579 8.870 -73.849 
5.586 8.799 -73.931 
3.111 -12.959 -65.610 
3.254 -12.913 -65.360 
-11.056 -5.217 -64.355 
-10.856 -5.052 -64.259 
-7.825 -2.429 -72.645 
-7.786 -2.411 -72.634 
-3.820 1.082 -59.167 
-3.888 1.311 -59.162 
5.376 12.297 -74.295 
5.326 12.239 -74.506 
-0.438 2.450 -59.326 
-0.404 2.621 -59.578 
-13.541 3.818 -64.700 
-13.612 3.896 -64.743 
1.156 -12.354 -68.825 
1.366 -12.245 -69.087 
-10.249 5.895 -67.110 
-10.333 5.944 -67.180 
-2.893 12.848 -70.670 
-2.790 12.934 -70.804 
-13.282 1.760 -69.836 
-13.312 1.731 -69.920 
10.542 1.561 -65.316 
10.584 1.707 -65.343 
11.368 -11.582 -71.684 
11.305 -11.474 -71.711 
-14.886 5.678 -68.092 
-14.988 5.526 -68.058 
11.968 -12.658 -70.757 
12.034 -12.621 -70.608 
-12.668 -1.216 -76.193 
-12.681 -1.218 -76.241 
-0.728 -5.154 -62.727 
-0.554 -4.703 -62.780 
11.341 1.791 -63.401 
11.382 1.943 -63.504 
-5.845 -4.300 -69.042 
-5.808 -4.193 -68.989 
-15.180 -5.838 -71.337 
-15.350 -5.976 -71.273 
-6.490 13.320 -63.449 
-6.450 13.617 -63.491 
-15.031 9.164 -70.142 
-14.927 9.054 -70.164 
16.261 8.269 -73.446 
16.165 8.210 -73.225 

 LINES 84 252 
2 0 1 
2 2 3 
2 4 5 
2 6 7 
2 8 9 
2 10 11 
2 12 13 
2 14 15 
2 16 17 
2 18 19 
2 20 21 
2 22 23 
2 24 25 
2 26 27 
2 28 29 
2 30 31 
2 32 33 
2 34 35 
2 36 37 
2 38 39 
2 40 41 
2 42 43 
2 44 45 
2 46 47 
2 48 49 
2 50 51 
2 52 53 
2 54 55 
2 56 57 
2 58 59 
2 60 61 
2 62 63 
2 64 65 
2 66 67 
2 68 69 
2 70 71 
2 72 73 
2 74 75 
2 76 77 
2 78 79 
2 80 81 
2 82 83 
2 84 85 
2 86 87 
2 88 89 
2 90 91 
2 92 93 
2 94 95 
2 96 97 
2 98 99 
2 100 101 
2 102 103 
2 104 105 
2 106 107 
2 108 109 
2 110 111 
2 112 113 
2 114 115 
2 116 117 
2 118 119 
2 120 121 
2 122 123 
2 124 125 
2 126 127 
2 128 129 
2 130 131 
2 132 133 
2 134 135 
2 136 137 
2 138 139 
2 140 141 
2 142 143 
2 144 145 
2 146 147 
2 148 149 
2 150 151 
2 152 153 
2 154 155 
2 156 157 
2 158 159 
2 160 161 
2 162 163 
2 164 165 
2 166 167 
POINT_DATA 168 
SCALARS Umean double 1 
LOOKUP_TABLE default
0.07994 
0.07994 
0.08612 
0.08612 
0.07452 
0.07452 
0.12901 
0.12901 
0.08188 
0.08188 
0.14813 
0.14813 
0.08952 
0.08952 
0.11270 
0.11270 
0.13089 
0.13089 
0.09010 
0.09010 
0.08677 
0.08677 
0.08445 
0.08445 
0.06859 
0.06859 
0.07300 
0.07300 
0.03877 
0.03877 
0.05342 
0.05342 
0.08986 
0.08986 
0.14544 
0.14544 
0.09898 
0.09898 
0.11112 
0.11112 
0.07115 
0.07115 
0.14062 
0.14062 
0.19700 
0.19700 
0.15517 
0.15517 
0.04909 
0.04909 
0.14841 
0.14841 
0.08645 
0.08645 
0.03946 
0.03946 
0.05640 
0.05640 
0.02472 
0.02472 
0.15775 
0.15775 
0.09474 
0.09474 
0.15691 
0.15691 
0.04423 
0.04423 
0.07212 
0.07212 
0.12525 
0.12525 
0.09139 
0.09139 
0.08946 
0.08946 
0.19394 
0.19394 
0.13449 
0.13449 
0.11471 
0.11471 
0.08550 
0.08550 
0.13944 
0.13944 
0.07111 
0.07111 
0.08804 
0.08804 
0.13170 
0.13170 
0.04265 
0.04265 
0.13900 
0.13900 
0.10758 
0.10758 
0.10564 
0.10564 
0.17594 
0.17594 
0.10728 
0.10728 
0.16236 
0.16236 
0.03256 
0.03256 
0.16358 
0.16358 
0.11952 
0.11952 
0.07227 
0.07227 
0.06615 
0.06615 
0.18826 
0.18826 
0.07705 
0.07705 
0.05435 
0.05435 
0.14583 
0.14583 
0.13824 
0.13824 
0.02217 
0.02217 
0.11947 
0.11947 
0.11223 
0.11223 
0.15322 
0.15322 
0.05695 
0.05695 
0.17651 
0.17651 
0.05991 
0.05991 
0.09482 
0.09482 
0.04690 
0.04690 
0.07715 
0.07715 
0.06396 
0.06396 
0.09309 
0.09309 
0.08356 
0.08356 
0.02488 
0.02488 
0.24315 
0.24315 
0.09407 
0.09407 
0.06250 
0.06250 
0.11406 
0.11406 
0.15131 
0.15131 
0.07649 
0.07649 
0.12403 
0.12403 
SCALARS Umean_X double 1 
LOOKUP_TABLE default
-0.00750 
-0.00750 
-0.07800 
-0.07800 
0.01150 
0.01150 
-0.01550 
-0.01550 
-0.02450 
-0.02450 
0.05900 
0.05900 
-0.06900 
-0.06900 
0.03250 
0.03250 
-0.01150 
-0.01150 
0.05400 
0.05400 
0.02550 
0.02550 
-0.00600 
-0.00600 
-0.05600 
-0.05600 
-0.00850 
-0.00850 
0.00950 
0.00950 
-0.01400 
-0.01400 
0.02350 
0.02350 
-0.07500 
-0.07500 
-0.00050 
-0.00050 
-0.02100 
-0.02100 
0.01400 
0.01400 
0.01050 
0.01050 
0.05800 
0.05800 
-0.02250 
-0.02250 
0.01200 
0.01200 
0.03250 
0.03250 
0.00050 
0.00050 
0.02400 
0.02400 
-0.02150 
-0.02150 
-0.01300 
-0.01300 
0.10700 
0.10700 
-0.01350 
-0.01350 
0.00750 
0.00750 
-0.02250 
-0.02250 
-0.01000 
-0.01000 
0.05250 
0.05250 
0.06000 
0.06000 
-0.04450 
-0.04450 
0.05400 
0.05400 
-0.01250 
-0.01250 
-0.03850 
-0.03850 
0.04450 
0.04450 
0.03150 
0.03150 
0.04450 
0.04450 
-0.02000 
-0.02000 
-0.03800 
-0.03800 
-0.01700 
-0.01700 
0.05700 
0.05700 
-0.01200 
-0.01200 
-0.05700 
-0.05700 
0.12000 
0.12000 
-0.03850 
-0.03850 
-0.03000 
-0.03000 
0.02050 
0.02050 
0.00900 
0.00900 
0.05700 
0.05700 
0.05950 
0.05950 
-0.01450 
-0.01450 
0.03700 
0.03700 
0.00600 
0.00600 
0.00350 
0.00350 
0.07150 
0.07150 
0.10000 
0.10000 
0.01950 
0.01950 
-0.03400 
-0.03400 
-0.02500 
-0.02500 
0.01700 
0.01700 
-0.03550 
-0.03550 
0.10500 
0.10500 
-0.04200 
-0.04200 
0.05150 
0.05150 
-0.01500 
-0.01500 
0.02100 
0.02100 
-0.03150 
-0.03150 
-0.05100 
-0.05100 
0.03300 
0.03300 
-0.00650 
-0.00650 
0.08700 
0.08700 
0.02050 
0.02050 
0.01850 
0.01850 
-0.08500 
-0.08500 
0.02000 
0.02000 
0.05200 
0.05200 
-0.04800 
-0.04800 
SCALARS Umean_Y double 1 
LOOKUP_TABLE default
0.05800 
0.05800 
0.02750 
0.02750 
0.06850 
0.06850 
0.12150 
0.12150 
-0.03150 
-0.03150 
0.13000 
0.13000 
0.05050 
0.05050 
0.09400 
0.09400 
0.11000 
0.11000 
0.06250 
0.06250 
0.08250 
0.08250 
0.03300 
0.03300 
0.03150 
0.03150 
-0.00000 
-0.00000 
0.00900 
0.00900 
-0.00750 
-0.00750 
0.08100 
0.08100 
0.02000 
0.02000 
0.08600 
0.08600 
0.00500 
0.00500 
0.05200 
0.05200 
0.02750 
0.02750 
0.10900 
0.10900 
0.11900 
0.11900 
-0.01400 
-0.01400 
-0.03700 
-0.03700 
0.08050 
0.08050 
0.00900 
0.00900 
0.04300 
0.04300 
-0.02000 
-0.02000 
0.11050 
0.11050 
0.02800 
0.02800 
0.12350 
0.12350 
-0.03700 
-0.03700 
0.05000 
0.05000 
0.10400 
0.10400 
0.02150 
0.02150 
0.05100 
0.05100 
0.12400 
0.12400 
0.13200 
0.13200 
0.02100 
0.02100 
0.01700 
0.01700 
0.11050 
0.11050 
0.04900 
0.04900 
0.08450 
0.08450 
0.10100 
0.10100 
-0.02100 
-0.02100 
0.10700 
0.10700 
0.09450 
0.09450 
0.06950 
0.06950 
0.12450 
0.12450 
0.03450 
0.03450 
0.14550 
0.14550 
-0.02400 
-0.02400 
0.14850 
0.14850 
0.02300 
0.02300 
-0.02900 
-0.02900 
0.04900 
0.04900 
0.17850 
0.17850 
0.07650 
0.07650 
-0.03550 
-0.03550 
0.02300 
0.02300 
0.08250 
0.08250 
0.00900 
0.00900 
0.11450 
0.11450 
-0.02900 
-0.02900 
0.08550 
0.08550 
0.03900 
0.03900 
0.05450 
0.05450 
0.02450 
0.02450 
0.04300 
0.04300 
-0.01450 
-0.01450 
0.07300 
0.07300 
0.05400 
0.05400 
-0.07600 
-0.07600 
0.01850 
0.01850 
-0.00100 
-0.00100 
0.22550 
0.22550 
0.07600 
0.07600 
0.05350 
0.05350 
-0.06900 
-0.06900 
0.14850 
0.14850 
-0.05500 
-0.05500 
-0.02950 
-0.02950 
SCALARS Umean_Z double 1 
LOOKUP_TABLE default
-0.05450 
-0.05450 
-0.02400 
-0.02400 
-0.02700 
-0.02700 
-0.04050 
-0.04050 
-0.07150 
-0.07150 
0.03950 
0.03950 
-0.02650 
-0.02650 
-0.05300 
-0.05300 
-0.07000 
-0.07000 
-0.03600 
-0.03600 
-0.00850 
-0.00850 
-0.07750 
-0.07750 
-0.02400 
-0.02400 
-0.07250 
-0.07250 
-0.03650 
-0.03650 
-0.05100 
-0.05100 
-0.03100 
-0.03100 
-0.12300 
-0.12300 
-0.04900 
-0.04900 
-0.10900 
-0.10900 
0.04650 
0.04650 
0.13750 
0.13750 
0.15350 
0.15350 
-0.09700 
-0.09700 
-0.04550 
-0.04550 
-0.14000 
-0.14000 
-0.03150 
-0.03150 
-0.03000 
-0.03000 
-0.02950 
-0.02950 
-0.00650 
-0.00650 
0.03500 
0.03500 
-0.08950 
-0.08950 
0.09650 
0.09650 
-0.00900 
-0.00900 
-0.05100 
-0.05100 
-0.04600 
-0.04600 
-0.06550 
-0.06550 
-0.05850 
-0.05850 
0.13900 
0.13900 
0.02250 
0.02250 
-0.10600 
-0.10600 
0.07100 
0.07100 
-0.07900 
-0.07900 
-0.02600 
-0.02600 
-0.01450 
-0.01450 
-0.07550 
-0.07550 
0.03300 
0.03300 
-0.06800 
-0.06800 
-0.05000 
-0.05000 
-0.05550 
-0.05550 
-0.03250 
-0.03250 
-0.09400 
-0.09400 
-0.06550 
-0.06550 
-0.00800 
-0.00800 
-0.06800 
-0.06800 
-0.10250 
-0.10250 
0.02900 
0.02900 
-0.04200 
-0.04200 
-0.04700 
-0.04700 
0.00700 
0.00700 
-0.04100 
-0.04100 
0.12500 
0.12500 
0.04800 
0.04800 
0.00550 
0.00550 
0.00250 
0.00250 
-0.10550 
-0.10550 
-0.12600 
-0.12600 
-0.02150 
-0.02150 
-0.13100 
-0.13100 
-0.03500 
-0.03500 
-0.06700 
-0.06700 
-0.04200 
-0.04200 
-0.01350 
-0.01350 
-0.01350 
-0.01350 
0.01700 
0.01700 
0.07450 
0.07450 
-0.02400 
-0.02400 
-0.02650 
-0.02650 
-0.05150 
-0.05150 
0.02650 
0.02650 
0.03200 
0.03200 
-0.02100 
-0.02100 
-0.01100 
-0.01100 
0.11050 
0.11050 
