# vtk DataFile Version 2.1 
Trajects from timestep 175 with color option 
ASCII 
 
DATASET POLYDATA POINTS 900 float 
-1.420 -0.043 -71.358 
-1.102 0.194 -71.789 
3.947 5.146 -74.835 
4.062 5.277 -75.222 
-12.698 5.186 -73.444 
-12.600 5.587 -73.555 
-0.262 -8.917 -71.690 
-0.158 -8.766 -71.536 
0.280 4.516 -68.427 
0.268 4.689 -68.517 
2.070 7.237 -69.344 
2.047 7.197 -69.437 
4.008 10.291 -67.347 
3.870 10.228 -67.261 
13.046 2.742 -72.722 
12.999 2.768 -72.837 
1.842 3.288 -69.599 
1.896 3.216 -69.722 
7.635 -0.630 -70.381 
7.735 -0.625 -70.593 
2.398 -7.109 -69.497 
2.447 -7.152 -69.905 
0.771 9.034 -70.327 
0.690 9.079 -70.412 
7.442 3.860 -70.090 
7.472 3.856 -70.385 
-2.465 9.214 -73.393 
-2.418 9.368 -73.783 
-10.108 4.302 -69.409 
-9.979 4.516 -69.435 
7.085 0.848 -73.715 
7.321 0.944 -73.970 
-7.674 9.093 -69.981 
-7.843 9.117 -70.160 
-2.213 -4.139 -69.148 
-2.092 -3.882 -69.347 
-1.039 5.778 -72.486 
-1.068 5.931 -72.766 
3.790 7.558 -70.376 
3.775 7.453 -70.425 
0.170 -9.283 -71.440 
0.284 -9.137 -71.435 
-0.530 1.913 -68.623 
-0.246 2.001 -68.777 
4.948 -3.139 -72.553 
5.089 -3.146 -73.003 
-7.852 3.213 -72.134 
-7.683 3.356 -72.296 
4.813 -0.063 -71.465 
5.118 0.058 -71.931 
0.778 -8.513 -66.124 
0.558 -8.498 -66.192 
0.415 2.024 -73.124 
0.618 2.201 -73.286 
11.036 3.378 -68.599 
11.021 3.447 -68.757 
1.769 -4.844 -70.472 
1.871 -4.773 -70.835 
-2.266 -4.601 -71.742 
-2.106 -4.492 -71.874 
-4.886 7.063 -65.255 
-4.848 7.273 -65.246 
-3.122 5.889 -70.575 
-2.962 5.988 -70.774 
0.225 -5.181 -67.212 
0.190 -5.068 -67.542 
-1.332 5.985 -70.499 
-1.256 6.050 -70.828 
3.983 2.230 -69.019 
3.960 2.107 -69.205 
5.467 -0.992 -65.944 
5.569 -0.845 -66.242 
1.562 -1.876 -68.457 
1.773 -1.794 -68.944 
-5.629 -2.658 -72.434 
-5.392 -2.420 -72.536 
-0.400 6.167 -62.936 
-0.332 6.113 -62.917 
-3.807 -7.895 -70.159 
-3.762 -7.851 -70.217 
7.742 6.895 -69.843 
8.054 6.984 -70.117 
-7.267 -1.861 -76.548 
-7.206 -1.757 -76.678 
2.639 5.376 -70.464 
2.702 5.311 -70.668 
-0.451 -7.132 -64.857 
-0.600 -7.011 -65.174 
-4.864 -8.368 -69.563 
-4.800 -8.179 -69.578 
-5.887 10.696 -66.684 
-6.111 10.775 -66.816 
1.653 6.727 -69.155 
1.616 6.699 -69.340 
-1.952 3.682 -76.375 
-1.842 3.852 -76.687 
3.925 -5.559 -70.896 
4.202 -5.547 -71.177 
0.993 -4.256 -75.745 
0.921 -3.980 -76.006 
-2.367 -7.612 -67.495 
-2.165 -7.471 -67.593 
11.299 5.994 -72.158 
11.437 5.904 -72.330 
-4.393 3.537 -64.072 
-4.383 3.632 -64.080 
2.804 -5.371 -72.575 
2.968 -5.284 -72.905 
1.217 -0.068 -70.887 
1.449 -0.027 -71.253 
7.125 -9.896 -74.336 
7.290 -9.824 -74.458 
-6.803 10.451 -72.334 
-7.001 10.661 -72.572 
-3.283 3.025 -64.403 
-3.153 3.116 -64.453 
-1.330 -12.019 -69.911 
-1.221 -12.056 -70.002 
8.713 -11.786 -69.230 
8.805 -11.686 -69.165 
2.094 6.217 -67.941 
2.164 6.178 -68.198 
5.430 6.824 -62.636 
5.307 6.681 -62.604 
10.351 -6.462 -67.045 
10.200 -6.324 -67.172 
1.524 10.822 -67.718 
1.097 10.790 -67.812 
-1.006 5.819 -68.236 
-0.895 5.809 -68.479 
-4.092 -6.575 -68.785 
-3.845 -6.390 -69.042 
2.271 -6.211 -63.123 
2.392 -6.280 -63.606 
5.196 -8.693 -63.142 
5.038 -8.612 -63.265 
-7.671 -3.952 -66.122 
-7.471 -3.918 -66.438 
2.845 -1.616 -73.485 
3.054 -1.453 -73.819 
-10.887 -2.709 -66.618 
-10.781 -2.653 -66.660 
-5.795 6.641 -64.919 
-5.640 6.775 -64.877 
-1.481 -9.189 -69.804 
-1.482 -9.175 -69.887 
-11.221 9.011 -70.034 
-11.300 9.177 -70.019 
6.139 11.329 -68.167 
5.929 10.997 -68.076 
6.576 6.487 -70.214 
6.764 6.683 -70.377 
-11.760 4.784 -66.421 
-11.651 5.122 -66.369 
3.413 7.500 -68.906 
3.359 7.363 -69.013 
-2.352 -2.152 -73.962 
-2.267 -2.112 -74.156 
0.741 -2.549 -63.867 
0.855 -2.537 -64.204 
-2.318 2.767 -67.155 
-2.042 2.863 -67.283 
-7.669 -1.523 -65.370 
-7.563 -1.267 -65.583 
11.066 3.033 -70.478 
10.942 3.075 -70.625 
0.949 6.700 -69.199 
0.906 6.655 -69.526 
1.376 -8.512 -65.632 
1.359 -8.439 -65.738 
0.991 -0.988 -75.073 
1.197 -0.812 -75.373 
8.086 1.311 -63.740 
8.135 1.309 -63.817 
3.007 11.184 -66.549 
2.851 11.178 -66.405 
3.859 6.664 -69.524 
3.866 6.575 -69.694 
-1.988 6.939 -64.544 
-1.779 7.092 -64.590 
3.659 4.381 -67.832 
3.789 4.397 -67.937 
5.470 -1.237 -63.498 
5.616 -1.110 -63.895 
-7.092 7.232 -70.255 
-7.015 7.434 -70.381 
-9.585 -4.322 -67.998 
-9.537 -4.184 -68.122 
-1.177 1.517 -69.258 
-0.963 1.636 -69.522 
-13.063 -7.213 -69.533 
-12.976 -7.052 -69.773 
6.678 -5.343 -67.914 
6.750 -5.053 -68.026 
5.891 -3.093 -68.921 
6.069 -3.003 -69.510 
11.645 1.815 -71.127 
11.720 1.936 -71.525 
12.159 -3.487 -66.876 
12.373 -3.495 -67.274 
4.851 4.664 -63.996 
4.695 4.570 -64.028 
-7.209 -3.393 -62.595 
-7.169 -3.325 -62.813 
-1.006 9.221 -70.712 
-1.204 9.309 -70.790 
-1.514 4.329 -70.587 
-1.453 4.337 -70.733 
9.300 -0.192 -70.269 
9.443 -0.128 -70.574 
-1.184 -5.904 -70.372 
-0.919 -5.778 -70.604 
-1.338 -3.064 -62.265 
-1.317 -2.959 -62.803 
0.506 9.085 -77.347 
0.589 9.176 -77.516 
-12.417 -0.998 -70.264 
-12.103 -0.870 -70.161 
2.515 0.742 -64.377 
2.587 0.445 -64.627 
2.453 -11.193 -69.935 
2.648 -11.245 -70.130 
-0.745 -5.980 -74.294 
-0.592 -5.829 -74.430 
-4.209 4.854 -66.679 
-3.933 5.049 -66.700 
-4.005 4.750 -63.666 
-3.922 4.889 -63.897 
-3.881 -4.014 -67.052 
-3.724 -3.994 -67.377 
10.067 7.785 -69.580 
10.146 7.636 -69.775 
-6.803 -3.646 -66.361 
-6.648 -3.423 -66.688 
3.280 2.550 -67.418 
3.590 2.443 -67.549 
-10.915 -8.993 -66.449 
-10.855 -9.006 -66.642 
7.519 -9.347 -64.076 
7.395 -9.325 -64.195 
-8.538 1.947 -67.056 
-8.328 2.262 -67.081 
13.218 10.653 -72.164 
13.319 10.768 -72.333 
4.327 5.512 -65.610 
4.182 5.611 -65.554 
4.834 -10.298 -72.044 
5.020 -10.289 -72.065 
-4.084 -10.393 -63.905 
-4.069 -10.497 -63.853 
3.265 -4.014 -63.438 
3.463 -4.068 -63.835 
-2.786 -2.642 -64.071 
-2.744 -2.459 -64.530 
-3.654 -10.514 -69.634 
-3.419 -10.461 -69.642 
2.858 5.914 -63.635 
2.760 6.074 -63.877 
-7.939 -7.626 -68.866 
-7.802 -7.397 -69.198 
-4.408 12.625 -62.348 
-4.528 12.731 -62.181 
2.156 -4.508 -65.945 
2.275 -4.523 -66.274 
15.461 -4.101 -69.193 
15.504 -3.961 -69.372 
4.153 -13.006 -66.419 
4.260 -13.077 -66.418 
-9.588 9.322 -67.622 
-9.586 9.365 -67.723 
-6.182 -2.359 -63.778 
-6.128 -2.179 -64.103 
11.573 0.781 -63.700 
11.691 0.917 -64.101 
0.465 -4.877 -67.873 
0.368 -4.661 -68.238 
-2.040 -12.542 -69.683 
-1.907 -12.425 -69.707 
3.118 -11.242 -68.234 
3.236 -11.253 -68.316 
-5.322 -7.441 -74.022 
-5.131 -7.268 -74.288 
-7.786 -4.195 -70.369 
-7.592 -4.078 -70.386 
-13.123 -11.399 -70.274 
-13.013 -11.405 -70.416 
-0.959 3.047 -62.168 
-0.827 3.044 -62.268 
13.602 5.608 -70.456 
13.586 5.802 -70.468 
-7.640 4.324 -68.360 
-7.235 4.522 -68.269 
4.349 -9.192 -64.800 
4.237 -9.099 -64.731 
7.489 2.172 -63.099 
7.525 2.265 -63.115 
4.493 -0.622 -61.768 
4.593 -0.425 -61.997 
-11.933 4.411 -68.727 
-11.859 4.626 -68.668 
-12.227 1.360 -63.888 
-12.214 1.618 -63.979 
-8.585 7.377 -75.769 
-8.541 7.552 -75.961 
-0.901 10.502 -72.468 
-1.144 10.467 -72.433 
-3.451 -8.630 -68.233 
-3.165 -8.454 -68.282 
1.494 -0.067 -62.574 
1.539 -0.109 -62.611 
-6.251 -5.375 -66.632 
-6.137 -5.301 -66.943 
6.306 -0.311 -64.128 
6.471 -0.153 -64.462 
14.585 -9.161 -70.710 
14.583 -9.209 -70.787 
6.383 5.019 -64.051 
6.190 5.032 -64.207 
9.591 9.918 -70.349 
9.749 9.745 -70.411 
-5.442 1.047 -65.232 
-5.239 1.250 -65.295 
-5.957 7.558 -73.587 
-5.834 7.756 -73.710 
13.704 5.298 -71.727 
13.649 5.498 -71.909 
-4.953 -1.843 -63.708 
-4.956 -1.698 -63.909 
-2.048 7.810 -72.086 
-2.080 7.982 -72.412 
1.194 -0.568 -61.435 
1.159 -0.590 -61.546 
-14.081 4.598 -74.787 
-13.930 4.940 -74.801 
-14.503 -6.309 -69.397 
-14.409 -6.161 -69.519 
8.869 7.416 -65.944 
9.050 7.400 -65.916 
-11.069 -8.055 -67.393 
-11.050 -8.022 -67.733 
11.111 8.826 -70.387 
11.230 8.744 -70.561 
3.769 -5.379 -65.696 
3.841 -5.332 -66.134 
12.365 -9.141 -64.428 
12.533 -9.049 -64.255 
-9.718 11.733 -70.884 
-9.785 11.808 -71.079 
1.770 5.859 -71.003 
1.765 5.821 -71.180 
-8.506 -6.451 -66.274 
-8.339 -6.411 -66.551 
-13.645 -11.515 -76.424 
-13.485 -11.198 -76.677 
-10.969 11.760 -71.847 
-11.040 11.882 -72.122 
3.979 3.015 -62.560 
3.845 3.116 -62.705 
-8.143 -8.240 -63.647 
-8.117 -8.275 -63.795 
0.043 0.831 -61.555 
-0.053 0.888 -61.696 
-0.834 -5.021 -71.251 
-0.508 -4.872 -71.479 
3.315 6.695 -64.868 
3.448 6.924 -65.061 
15.451 7.953 -72.210 
15.698 8.226 -72.465 
9.159 9.125 -66.661 
9.294 9.011 -66.598 
8.551 6.196 -76.518 
8.815 6.295 -76.970 
9.451 2.967 -73.273 
9.349 3.071 -73.526 
16.505 -12.378 -69.521 
16.514 -12.547 -69.576 
8.069 7.105 -64.987 
8.147 7.101 -65.067 
5.776 6.106 -68.600 
6.033 6.075 -68.710 
9.928 -8.810 -61.364 
9.860 -8.783 -61.524 
-7.845 -6.788 -66.844 
-7.739 -6.765 -67.067 
11.209 -10.518 -73.153 
11.302 -10.475 -73.229 
-11.171 7.780 -66.967 
-10.992 7.853 -66.707 
13.860 2.120 -73.295 
14.052 2.373 -73.487 
8.699 -9.866 -69.724 
8.754 -9.822 -69.737 
12.276 -10.140 -68.893 
12.393 -10.098 -68.892 
-10.076 11.455 -65.326 
-9.988 11.447 -65.140 
-9.620 -9.696 -66.835 
-9.550 -9.568 -67.128 
-2.152 -11.653 -66.161 
-1.743 -11.648 -66.090 
17.229 7.678 -74.313 
17.564 7.881 -74.421 
-8.917 6.408 -68.346 
-8.812 6.214 -68.350 
-10.963 12.495 -68.394 
-11.033 12.573 -68.581 
2.860 10.215 -75.220 
2.670 10.131 -75.265 
-3.024 11.262 -65.001 
-3.287 11.289 -64.557 
5.484 10.972 -63.871 
5.503 10.948 -63.703 
1.428 -7.826 -70.593 
1.808 -7.800 -70.833 
5.703 -6.195 -67.320 
5.505 -6.028 -67.274 
-12.596 -6.839 -70.044 
-12.413 -6.645 -70.229 
-7.608 8.558 -62.983 
-7.484 8.923 -62.987 
-8.364 -0.661 -75.432 
-8.353 -0.533 -75.428 
3.568 -1.012 -65.325 
3.584 -0.986 -65.520 
8.055 7.044 -67.227 
8.153 6.852 -67.261 
7.230 6.425 -69.718 
7.431 6.592 -69.989 
9.022 11.095 -65.442 
8.982 10.859 -65.303 
3.359 7.271 -77.529 
3.487 7.460 -78.038 
-11.008 11.520 -76.018 
-10.932 11.724 -76.313 
-9.085 10.617 -73.429 
-9.080 10.698 -73.626 
2.151 5.567 -63.245 
2.006 5.673 -63.394 
5.693 -0.285 -63.362 
5.845 -0.155 -63.609 
-6.502 3.975 -72.521 
-6.438 4.185 -72.600 
-12.550 -2.231 -64.074 
[...]
POINT_DATA 900 
SCALARS Umean double 1 
LOOKUP_TABLE default
0.29285 
0.29285 
0.21222 
0.21222 
0.21373 
0.21373 
0.11972 
0.11972 
0.09769 
0.09769 
0.05191 
0.05191 
0.08719 
0.08719 
0.06346 
0.06346 
0.07621 
0.07621 
0.11723 
0.11723 
0.20659 
0.20659 
0.06287 
0.06287 
0.14827 
0.14827 
0.21097 
0.21097 
0.12561 
0.12561 
0.18023 
0.18023 
0.12367 
0.12367 
0.17341 
0.17341 
0.16020 
0.16020 
0.05842 
0.05842 
0.09265 
0.09265 
0.16742 
0.16742 
0.23581 
0.23581 
0.13716 
0.13716 
0.28497 
0.28497 
0.11538 
0.11538 
0.15715 
0.15715 
0.08653 
0.08653 
0.19184 
0.19184 
0.11716 
0.11716 
0.10680 
0.10680 
0.13693 
0.13693 
0.17528 
0.17528 
0.17193 
0.17193 
0.11209 
0.11209 
0.17379 
0.17379 
0.26852 
0.26852 
0.17551 
0.17551 
0.04444 
0.04444 
0.04279 
0.04279 
0.21233 
0.21233 
0.08865 
0.08865 
0.11159 
0.11159 
0.18529 
0.18529 
0.10005 
0.10005 
0.13587 
0.13587 
0.09537 
0.09537 
0.18597 
0.18597 
0.19738 
0.19738 
0.19331 
0.19331 
0.13256 
0.13256 
0.11909 
0.11909 
0.04793 
0.04793 
0.18932 
0.18932 
0.21764 
0.21764 
0.10873 
0.10873 
0.18705 
0.18705 
0.08319 
0.08319 
0.07337 
0.07337 
0.07531 
0.07531 
0.13460 
0.13460 
0.09566 
0.09566 
0.12039 
0.12039 
0.21920 
0.21920 
0.13367 
0.13367 
0.20080 
0.20080 
0.25134 
0.25134 
0.10800 
0.10800 
0.18776 
0.18776 
0.21319 
0.21319 
0.06351 
0.06351 
0.10458 
0.10458 
0.04209 
0.04209 
0.09223 
0.09223 
0.20162 
0.20162 
0.15837 
0.15837 
0.17946 
0.17946 
0.09101 
0.09101 
0.10777 
0.10777 
0.17798 
0.17798 
0.15951 
0.15951 
0.17474 
0.17474 
0.09842 
0.09842 
0.16644 
0.16644 
0.06491 
0.06491 
0.20212 
0.20212 
0.04565 
0.04565 
0.10619 
0.10619 
0.09601 
0.09601 
0.13154 
0.13154 
0.08394 
0.08394 
0.22082 
0.22082 
0.12511 
0.12511 
0.09582 
0.09582 
0.18004 
0.18004 
0.15091 
0.15091 
0.15955 
0.15955 
0.31093 
0.31093 
0.21135 
0.21135 
0.22598 
0.22598 
0.09246 
0.09246 
0.11592 
0.11592 
0.11514 
0.11514 
0.07922 
0.07922 
0.17144 
0.17144 
0.18703 
0.18703 
0.27428 
0.27428 
0.10456 
0.10456 
0.17719 
0.17719 
0.19742 
0.19742 
0.14032 
0.14032 
0.12719 
0.12719 
0.16929 
0.16929 
0.14104 
0.14104 
0.18074 
0.18074 
0.12891 
0.12891 
0.21253 
0.21253 
0.17657 
0.17657 
0.10126 
0.10126 
0.08663 
0.08663 
0.18970 
0.18970 
0.11400 
0.11400 
0.09214 
0.09214 
0.09370 
0.09370 
0.05862 
0.05862 
0.22346 
0.22346 
0.24796 
0.24796 
0.12052 
0.12052 
0.15311 
0.15311 
0.21298 
0.21298 
0.11568 
0.11568 
0.17509 
0.17509 
0.11564 
0.11564 
0.06421 
0.06421 
0.05490 
0.05490 
0.18771 
0.18771 
0.21978 
0.21978 
0.21754 
0.21754 
0.08938 
0.08938 
0.07206 
0.07206 
0.18518 
0.18518 
0.11359 
0.11359 
0.08986 
0.08986 
0.08281 
0.08281 
0.09751 
0.09751 
0.22995 
0.22995 
0.08055 
0.08055 
0.05050 
0.05050 
0.15910 
0.15910 
0.11745 
0.11745 
0.13694 
0.13694 
0.13174 
0.13174 
0.12399 
0.12399 
0.16969 
0.16969 
0.03591 
0.03591 
0.16970 
0.16970 
0.20233 
0.20233 
0.04538 
0.04538 
0.12425 
0.12425 
0.12118 
0.12118 
0.14696 
0.14696 
0.13178 
0.13178 
0.13798 
0.13798 
0.12393 
0.12393 
0.18499 
0.18499 
0.05922 
0.05922 
0.18706 
0.18706 
0.10680 
0.10680 
0.09193 
0.09193 
0.17106 
0.17106 
0.11309 
0.11309 
0.22318 
0.22318 
0.12905 
0.12905 
0.10970 
0.10970 
0.09055 
0.09055 
0.16296 
0.16296 
0.21800 
0.21800 
0.15456 
0.15456 
0.11089 
0.11089 
0.07714 
0.07714 
0.08992 
0.08992 
0.21240 
0.21240 
0.16384 
0.16384 
0.22392 
0.22392 
0.09379 
0.09379 
0.26636 
0.26636 
0.14597 
0.14597 
0.08898 
0.08898 
0.05590 
0.05590 
0.14063 
0.14063 
0.08797 
0.08797 
0.12399 
0.12399 
0.06378 
0.06378 
0.16200 
0.16200 
0.18556 
0.18556 
0.03581 
0.03581 
0.06216 
0.06216 
0.10296 
0.10296 
0.16366 
0.16366 
0.20757 
0.20757 
0.20316 
0.20316 
0.11031 
0.11031 
0.10718 
0.10718 
0.10628 
0.10628 
0.25838 
0.25838 
0.08538 
0.08538 
0.22510 
0.22510 
0.13154 
0.13154 
0.16229 
0.16229 
0.19275 
0.19275 
0.06427 
0.06427 
0.09869 
0.09869 
0.10911 
0.10911 
0.18824 
0.18824 
0.13840 
0.13840 
0.27892 
0.27892 
0.18331 
0.18331 
0.10653 
0.10653 
0.11669 
0.11669 
0.15891 
0.15891 
0.11666 
0.11666 
0.15615 
0.15615 
0.26270 
0.26270 
0.12279 
0.12279 
0.20022 
0.20022 
0.09288 
0.09288 
0.07326 
0.07326 
0.31376 
0.31376 
0.13372 
0.13372 
0.11458 
0.11458 
0.08329 
0.08329 
0.21765 
0.21765 
0.20851 
0.20851 
0.04433 
0.04433 
0.07112 
0.07112 
0.10471 
0.10471 
0.19420 
0.19420 
0.15544 
0.15544 
0.17552 
0.17552 
0.11927 
0.11927 
0.05600 
0.05600 
0.20182 
0.20182 
0.19687 
0.19687 
0.07091 
0.07091 
0.10410 
0.10410 
0.07875 
0.07875 
0.28321 
0.28321 
0.07463 
0.07463 
0.09854 
0.09854 
0.25616 
0.25616 
0.13844 
0.13844 
0.15432 
0.15432 
0.26790 
0.26790 
0.16505 
0.16505 
0.11069 
0.11069 
0.23092 
0.23092 
0.25442 
0.25442 
0.16049 
0.16049 
0.24790 
0.24790 
0.20929 
0.20929 
0.08064 
0.08064 
0.26104 
0.26104 
0.15680 
0.15680 
0.10874 
0.10874 
0.17345 
0.17345 
0.07643 
0.07643 
0.19236 
0.19236 
0.18261 
0.18261 
0.20298 
0.20298 
0.05942 
0.05942 
0.13226 
0.13226 
0.24398 
0.24398 
0.08053 
0.08053 
0.02924 
0.02924 
0.13363 
0.13363 
0.08968 
0.08968 
0.11525 
0.11525 
0.12683 
0.12683 
0.09089 
0.09089 
0.20519 
0.20519 
0.16330 
0.16330 
0.09899 
0.09899 
0.10337 
0.10337 
0.06717 
0.06717 
0.19488 
0.19488 
0.06923 
0.06923 
0.14833 
0.14833 
0.07269 
0.07269 
0.16589 
0.16589 
0.06154 
0.06154 
0.12692 
0.12692 
0.05522 
0.05522 
0.08688 
0.08688 
0.06898 
0.06898 
0.23415 
0.23415 
0.16012 
0.16012 
0.16013 
0.16013 
0.22806 
0.22806 
0.28101 
0.28101 
0.27652 
0.27652 
0.21986 
0.21986 
0.21097 
0.21097 
0.12307 
0.12307 
0.05152 
0.05152 
0.21108 
0.21108 
0.21181 
0.21181 
0.18734 
0.18734 
0.19112 
0.19112 
0.25375 
0.25375 
0.09044 
0.09044 
0.18737 
0.18737 
0.09959 
0.09959 
0.25356 
0.25356 
0.17808 
0.17808 
0.14490 
0.14490 
0.07057 
0.07057 
0.13065 
0.13065 
0.27574 
0.27574 
0.22988 
0.22988 
0.07773 
0.07773 
0.27135 
0.27135 
0.08074 
0.08074 
0.22333 
0.22333 
0.10382 
0.10382 
0.20378 
0.20378 
0.14687 
0.14687 
0.13237 
0.13237 
0.14572 
0.14572 
0.25730 
0.25730 
0.15010 
0.15010 
0.08761 
0.08761 
0.16878 
0.16878 
0.18927 
0.18927 
0.21059 
0.21059 
0.13900 
0.13900 
0.08636 
0.08636 
0.12804 
0.12804 
0.10487 
0.10487 
0.16081 
0.16081 
0.20733 
0.20733 
0.16026 
0.16026 
0.20078 
0.20078 
0.17445 
0.17445 
0.14777 
0.14777 
0.09525 
0.09525 
0.10496 
0.10496 
0.17504 
0.17504 
0.12802 
0.12802 
0.26274 
0.26274 
0.12075 
0.12075 
0.08546 
0.08546 
0.15370 
0.15370 
0.11517 
0.11517 
0.07764 
0.07764 
0.10370 
0.10370 
0.17966 
0.17966 
0.10515 
0.10515 
0.17867 
0.17867 
0.14419 
0.14419 
0.19936 
0.19936 
0.05912 
0.05912 
0.14446 
0.14446 
0.24534 
0.24534 
0.17009 
0.17009 
0.17596 
0.17596 
0.20579 
0.20579 
0.18236 
0.18236 
0.29230 
0.29230 
0.11387 
0.11387 
0.05576 
0.05576 
0.23787 
0.23787 
0.18455 
0.18455 
0.14376 
0.14376 
0.17939 
0.17939 
0.17077 
0.17077 
0.17588 
0.17588 
0.08369 
0.08369 
0.26290 
0.26290 
0.19329 
0.19329 
0.21456 
0.21456 
0.13775 
0.13775 
0.12838 
0.12838 
0.11032 
0.11032 
0.03540 
0.03540 
0.17905 
0.17905 
0.08378 
0.08378 
0.14327 
0.14327 
0.06646 
0.06646 
0.19874 
0.19874 
0.13487 
0.13487 
0.15881 
0.15881 
0.17427 
0.17427 
0.08616 
0.08616 
0.23637 
0.23637 
0.19219 
0.19219 
0.09507 
0.09507 
0.19041 
0.19041 
0.24394 
0.24394 
0.05710 
0.05710 
0.21601 
0.21601 
0.10818 
0.10818 
0.07676 
0.07676 
0.10665 
0.10665 
0.09716 
0.09716 
0.16519 
0.16519 
0.05282 
0.05282 
0.12950 
0.12950 
0.04796 
0.04796 
0.19349 
0.19349 
0.22629 
0.22629 
0.15169 
0.15169 
0.06741 
0.06741 
0.18038 
0.18038 
0.11578 
0.11578 
0.16287 
0.16287 
0.09983 
0.09983 
0.07358 
0.07358 
0.28304 
0.28304 
0.19538 
0.19538 
0.26398 
0.26398 
0.14968 
0.14968 
0.08132 
0.08132 
0.09236 
0.09236 
0.12031 
0.12031 
0.09237 
0.09237 
0.21175 
0.21175 
0.20371 
0.20371 
0.26412 
0.26412 
0.13437 
0.13437 
0.08381 
0.08381 
0.19762 
0.19762 
0.07752 
0.07752 
0.23091 
0.23091 
0.15921 
0.15921 
0.08157 
0.08157 
0.12301 
0.12301 
0.20779 
0.20779 
0.23315 
0.23315 
0.12201 
0.12201 
0.16900 
0.16900 
0.17734 
0.17734 
0.17845 
0.17845 
0.07784 
0.07784 
0.11311 
0.11311 
0.17045 
0.17045 
0.30888 
0.30888 
0.10745 
0.10745 
0.33712 
0.33712 
0.22571 
0.22571 
0.15587 
0.15587 
SCALARS Umean_X double 1 
LOOKUP_TABLE default
0.15900 
0.15900 
0.05750 
0.05750 
0.04900 
0.04900 
0.05200 
0.05200 
-0.00600 
-0.00600 
-0.01150 
-0.01150 
-0.06900 
-0.06900 
-0.02350 
-0.02350 
0.02700 
0.02700 
0.05000 
0.05000 
0.02450 
0.02450 
-0.04050 
-0.04050 
0.01500 
0.01500 
0.02350 
0.02350 
0.06450 
0.06450 
0.11800 
0.11800 
-0.08450 
-0.08450 
0.06050 
0.06050 
-0.01450 
-0.01450 
-0.00750 
-0.00750 
0.05700 
0.05700 
0.14200 
0.14200 
0.07050 
0.07050 
0.08450 
0.08450 
0.15250 
0.15250 
-0.11000 
-0.11000 
0.10150 
0.10150 
-0.00750 
-0.00750 
0.05100 
0.05100 
0.08000 
0.08000 
0.01900 
0.01900 
0.08000 
0.08000 
-0.01750 
-0.01750 
0.03800 
0.03800 
-0.01150 
-0.01150 
0.05100 
0.05100 
0.10550 
0.10550 
0.11850 
0.11850 
0.03400 
0.03400 
0.02250 
0.02250 
0.15600 
0.15600 
0.03050 
0.03050 
0.03150 
0.03150 
-0.07450 
-0.07450 
0.03200 
0.03200 
-0.11200 
-0.11200 
-0.01850 
-0.01850 
0.05500 
0.05500 
0.13850 
0.13850 
-0.03600 
-0.03600 
0.10100 
0.10100 
0.06900 
0.06900 
0.00500 
0.00500 
0.08200 
0.08200 
0.11600 
0.11600 
0.08250 
0.08250 
-0.09900 
-0.09900 
0.06500 
0.06500 
0.05450 
0.05450 
0.04600 
0.04600 
0.03500 
0.03500 
-0.06150 
-0.06150 
-0.07550 
-0.07550 
-0.21350 
-0.21350 
0.05550 
0.05550 
0.12350 
0.12350 
0.06050 
0.06050 
-0.07900 
-0.07900 
0.10000 
0.10000 
0.10450 
0.10450 
0.05300 
0.05300 
0.07750 
0.07750 
-0.00050 
-0.00050 
-0.03950 
-0.03950 
-0.10500 
-0.10500 
0.09400 
0.09400 
0.05450 
0.05450 
-0.02700 
-0.02700 
0.04250 
0.04250 
0.05700 
0.05700 
0.13800 
0.13800 
0.05300 
0.05300 
-0.06200 
-0.06200 
-0.02150 
-0.02150 
-0.00850 
-0.00850 
0.10300 
0.10300 
0.02450 
0.02450 
-0.07800 
-0.07800 
0.00350 
0.00350 
0.10450 
0.10450 
0.06500 
0.06500 
0.07300 
0.07300 
0.03850 
0.03850 
0.02400 
0.02400 
0.10700 
0.10700 
0.04350 
0.04350 
0.03600 
0.03600 
0.08900 
0.08900 
0.03750 
0.03750 
0.10700 
0.10700 
-0.07800 
-0.07800 
0.02000 
0.02000 
-0.09900 
-0.09900 
0.03050 
0.03050 
0.07150 
0.07150 
0.13250 
0.13250 
0.01050 
0.01050 
0.04150 
0.04150 
0.15700 
0.15700 
0.03600 
0.03600 
0.09750 
0.09750 
0.07650 
0.07650 
0.13800 
0.13800 
0.04150 
0.04150 
0.07850 
0.07850 
0.03950 
0.03950 
0.07750 
0.07750 
0.15500 
0.15500 
0.03000 
0.03000 
-0.06200 
-0.06200 
0.10500 
0.10500 
0.05050 
0.05050 
-0.07250 
-0.07250 
0.09300 
0.09300 
0.00750 
0.00750 
0.09900 
0.09900 
0.02100 
0.02100 
0.11750 
0.11750 
-0.04900 
-0.04900 
0.06850 
0.06850 
-0.06000 
-0.06000 
0.05950 
0.05950 
0.02150 
0.02150 
0.05350 
0.05350 
0.00100 
0.00100 
0.02700 
0.02700 
0.05900 
0.05900 
-0.04850 
-0.04850 
0.06650 
0.06650 
0.05900 
0.05900 
0.09550 
0.09550 
0.09700 
0.09700 
0.05500 
0.05500 
0.06600 
0.06600 
-0.00800 
-0.00800 
0.20250 
0.20250 
-0.05600 
-0.05600 
0.01800 
0.01800 
0.05000 
0.05000 
0.03700 
0.03700 
0.00650 
0.00650 
0.02200 
0.02200 
-0.12150 
-0.12150 
0.14300 
0.14300 
0.02250 
0.02250 
0.05700 
0.05700 
0.08250 
0.08250 
-0.00100 
-0.00100 
-0.09650 
-0.09650 
0.07900 
0.07900 
0.10150 
0.10150 
0.06150 
0.06150 
-0.02750 
-0.02750 
-0.00150 
-0.00150 
-0.01600 
-0.01600 
-0.01750 
-0.01750 
0.07550 
0.07550 
0.04700 
0.04700 
0.09050 
0.09050 
0.00950 
0.00950 
0.05950 
0.05950 
0.03600 
0.03600 
0.08400 
0.08400 
-0.03350 
-0.03350 
-0.00250 
-0.00250 
0.08350 
0.08350 
0.08000 
0.08000 
-0.03550 
-0.03550 
-0.06700 
-0.06700 
0.01300 
0.01300 
-0.04800 
-0.04800 
0.16300 
0.16300 
0.06650 
0.06650 
0.12350 
0.12350 
0.06750 
0.06750 
0.13200 
0.13200 
-0.05100 
-0.05100 
0.00450 
0.00450 
0.03900 
0.03900 
0.12850 
0.12850 
-0.03400 
-0.03400 
0.05300 
0.05300 
0.04650 
0.04650 
0.08950 
0.08950 
0.09600 
0.09600 
0.02750 
0.02750 
0.05850 
0.05850 
0.04400 
0.04400 
0.03500 
0.03500 
0.20450 
0.20450 
0.16750 
0.16750 
0.05250 
0.05250 
-0.03500 
-0.03500 
-0.09500 
-0.09500 
-0.13150 
-0.13150 
0.00950 
0.00950 
0.19000 
0.19000 
-0.09900 
-0.09900 
0.09150 
0.09150 
0.06200 
0.06200 
0.00550 
0.00550 
0.00800 
0.00800 
0.04900 
0.04900 
0.10050 
0.10050 
-0.02000 
-0.02000 
0.06400 
0.06400 
0.03800 
0.03800 
0.00250 
0.00250 
-0.07250 
-0.07250 
0.07600 
0.07600 
0.03200 
0.03200 
0.02850 
0.02850 
0.08700 
0.08700 
0.06050 
0.06050 
0.15450 
0.15450 
0.04850 
0.04850 
0.01900 
0.01900 
0.25800 
0.25800 
0.12550 
0.12550 
0.02150 
0.02150 
-0.06550 
-0.06550 
0.13450 
0.13450 
0.00150 
0.00150 
-0.00100 
-0.00100 
0.02350 
0.02350 
0.06300 
0.06300 
0.05900 
0.05900 
0.14800 
0.14800 
0.10500 
0.10500 
0.02850 
0.02850 
0.05050 
0.05050 
0.01050 
0.01050 
-0.01450 
-0.01450 
0.02900 
0.02900 
0.07400 
0.07400 
-0.02350 
-0.02350 
0.19600 
0.19600 
-0.00100 
-0.00100 
-0.09800 
-0.09800 
0.11600 
0.11600 
0.08400 
0.08400 
-0.01900 
-0.01900 
0.12950 
0.12950 
0.04150 
0.04150 
-0.02400 
-0.02400 
0.04800 
0.04800 
0.09800 
0.09800 
0.01300 
0.01300 
0.05450 
0.05450 
0.08000 
0.08000 
0.04550 
0.04550 
0.10100 
0.10100 
0.03450 
0.03450 
0.09500 
0.09500 
0.04850 
0.04850 
0.04400 
0.04400 
0.02200 
0.02200 
0.12150 
0.12150 
0.15950 
0.15950 
-0.05700 
-0.05700 
0.04000 
0.04000 
0.09900 
0.09900 
-0.02750 
-0.02750 
-0.00950 
-0.00950 
0.06400 
0.06400 
-0.00350 
-0.00350 
0.09500 
0.09500 
-0.01550 
-0.01550 
0.06850 
0.06850 
-0.12600 
-0.12600 
0.11750 
0.11750 
0.01850 
0.01850 
0.08050 
0.08050 
0.03300 
0.03300 
0.17850 
0.17850 
0.04750 
0.04750 
0.04650 
0.04650 
-0.05850 
-0.05850 
0.12200 
0.12200 
0.04250 
0.04250 
0.08600 
0.08600 
0.00950 
0.00950 
-0.00450 
-0.00450 
0.02450 
0.02450 
0.15300 
0.15300 
0.09500 
0.09500 
0.13950 
0.13950 
0.09150 
0.09150 
0.02350 
0.02350 
0.13000 
0.13000 
0.11400 
0.11400 
0.09050 
0.09050 
0.06900 
0.06900 
-0.04550 
-0.04550 
-0.03000 
-0.03000 
-0.04250 
-0.04250 
0.17000 
0.17000 
0.08150 
0.08150 
0.12150 
0.12150 
-0.02200 
-0.02200 
0.10400 
0.10400 
-0.08900 
-0.08900 
0.14950 
0.14950 
-0.14450 
-0.14450 
-0.06550 
-0.06550 
0.05200 
0.05200 
0.08450 
0.08450 
0.01150 
0.01150 
-0.22100 
-0.22100 
-0.04200 
-0.04200 
-0.02800 
-0.02800 
0.06450 
0.06450 
0.09200 
0.09200 
-0.06250 
-0.06250 
0.14150 
0.14150 
0.08300 
0.08300 
0.04600 
0.04600 
0.04400 
0.04400 
0.09650 
0.09650 
0.14900 
0.14900 
-0.03550 
-0.03550 
0.00750 
0.00750 
0.05500 
0.05500 
0.12500 
0.12500 
0.07850 
0.07850 
-0.04300 
-0.04300 
-0.00050 
-0.00050 
-0.02500 
-0.02500 
0.03450 
0.03450 
-0.13400 
-0.13400 
0.07400 
0.07400 
0.08150 
0.08150 
0.10250 
0.10250 
0.03050 
0.03050 
-0.02500 
-0.02500 
0.08800 
0.08800 
0.16250 
0.16250 
0.04950 
0.04950 
0.08950 
0.08950 
-0.03300 
-0.03300 
0.08350 
0.08350 
0.11650 
0.11650 
0.10400 
0.10400 
0.02500 
0.02500 
0.07650 
0.07650 
0.13150 
0.13150 
-0.00450 
-0.00450 
0.08100 
0.08100 
0.01350 
0.01350 
0.05500 
0.05500 
-0.03700 
-0.03700 
0.01850 
0.01850 
-0.13050 
-0.13050 
0.14100 
0.14100 
0.06700 
0.06700 
0.10750 
0.10750 
-0.17900 
-0.17900 
0.24750 
0.24750 
0.01450 
0.01450 
0.05350 
0.05350 
0.09950 
0.09950 
0.04050 
0.04050 
0.07550 
0.07550 
0.13250 
0.13250 
0.05650 
0.05650 
0.03850 
0.03850 
-0.03950 
-0.03950 
0.18250 
0.18250 
0.13300 
0.13300 
0.11050 
0.11050 
0.13150 
0.13150 
-0.05200 
-0.05200 
0.08250 
0.08250 
-0.03500 
-0.03500 
0.01250 
0.01250 
0.01850 
0.01850 
-0.02600 
-0.02600 
0.01150 
0.01150 
-0.01450 
-0.01450 
-0.01600 
-0.01600 
0.10250 
0.10250 
0.06800 
0.06800 
0.02400 
0.02400 
0.06250 
0.06250 
-0.00600 
-0.00600 
0.08750 
0.08750 
0.06000 
0.06000 
0.15600 
0.15600 
0.01150 
0.01150 
-0.05750 
-0.05750 
-0.04900 
-0.04900 
0.00900 
0.00900 
0.08850 
0.08850 
-0.05750 
-0.05750 
0.16200 
0.16200 
0.00450 
0.00450 
0.08000 
0.08000 
-0.01900 
-0.01900 
0.16000 
0.16000 
0.16800 
0.16800 
-0.04650 
-0.04650 
0.01650 
0.01650 
0.05200 
0.05200 
0.02450 
0.02450 
-0.00700 
-0.00700 
-0.09800 
-0.09800 
0.02200 
0.02200 
0.17300 
0.17300 
0.05150 
0.05150 
0.18650 
0.18650 
0.13100 
0.13100 
0.04750 
0.04750 
-0.02000 
-0.02000 
0.06100 
0.06100 
0.06200 
0.06200 
-0.02200 
-0.02200 
0.11400 
0.11400 
0.11550 
0.11550 
-0.13150 
-0.13150 
0.07100 
0.07100 
-0.03600 
-0.03600 
0.05150 
0.05150 
0.18800 
0.18800 
0.14950 
0.14950 
-0.05300 
-0.05300 
0.07800 
0.07800 
0.12550 
0.12550 
0.08700 
0.08700 
0.10950 
0.10950 
0.02450 
0.02450 
-0.00850 
-0.00850 
-0.06400 
-0.06400 
-0.04850 
-0.04850 
0.11150 
0.11150 
0.12650 
0.12650 
0.11100 
0.11100 
0.04050 
0.04050 
0.23200 
0.23200 
0.21850 
0.21850 
0.14500 
0.14500 
SCALARS Umean_Y double 1 
LOOKUP_TABLE default
0.11850 
0.11850 
0.06550 
0.06550 
0.20050 
0.20050 
0.07550 
0.07550 
0.08650 
0.08650 
-0.02000 
-0.02000 
-0.03150 
-0.03150 
0.01300 
0.01300 
-0.03600 
-0.03600 
0.00250 
0.00250 
-0.02150 
-0.02150 
0.02250 
0.02250 
-0.00200 
-0.00200 
0.07700 
0.07700 
0.10700 
0.10700 
0.04800 
0.04800 
0.01200 
0.01200 
0.12850 
0.12850 
0.07650 
0.07650 
-0.05250 
-0.05250 
0.07300 
0.07300 
0.04400 
0.04400 
-0.00350 
-0.00350 
0.07150 
0.07150 
0.06050 
0.06050 
0.00750 
0.00750 
0.08850 
0.08850 
0.03450 
0.03450 
0.03550 
0.03550 
0.05450 
0.05450 
0.10500 
0.10500 
0.04950 
0.04950 
0.05650 
0.05650 
0.03250 
0.03250 
-0.06150 
-0.06150 
0.07350 
0.07350 
0.04100 
0.04100 
0.11900 
0.11900 
-0.02700 
-0.02700 
0.02200 
0.02200 
0.04450 
0.04450 
0.05200 
0.05200 
-0.03250 
-0.03250 
0.06050 
0.06050 
0.09450 
0.09450 
0.03950 
0.03950 
-0.01400 
-0.01400 
0.08500 
0.08500 
0.00600 
0.00600 
0.13800 
0.13800 
0.07050 
0.07050 
-0.04500 
-0.04500 
0.04750 
0.04750 
0.04350 
0.04350 
0.02050 
0.02050 
0.03600 
0.03600 
0.10500 
0.10500 
0.04550 
0.04550 
-0.01850 
-0.01850 
0.05000 
0.05000 
-0.01950 
-0.01950 
-0.07150 
-0.07150 
0.06900 
0.06900 
-0.01600 
-0.01600 
-0.00500 
-0.00500 
0.09250 
0.09250 
-0.03450 
-0.03450 
0.04050 
0.04050 
0.01700 
0.01700 
0.08150 
0.08150 
0.02800 
0.02800 
0.06700 
0.06700 
0.00700 
0.00700 
0.08300 
0.08300 
-0.16600 
-0.16600 
0.09800 
0.09800 
0.16900 
0.16900 
-0.06850 
-0.06850 
0.02000 
0.02000 
0.00600 
0.00600 
0.04800 
0.04800 
0.12800 
0.12800 
0.02100 
0.02100 
-0.02250 
-0.02250 
0.03650 
0.03650 
0.08800 
0.08800 
-0.00100 
-0.00100 
-0.00300 
-0.00300 
-0.04450 
-0.04450 
0.07650 
0.07650 
0.00800 
0.00800 
0.06350 
0.06350 
0.10100 
0.10100 
0.06900 
0.06900 
0.05950 
0.05950 
0.08050 
0.08050 
0.14500 
0.14500 
0.04500 
0.04500 
0.06050 
0.06050 
-0.00400 
-0.00400 
-0.04700 
-0.04700 
0.03400 
0.03400 
0.04400 
0.04400 
0.00400 
0.00400 
0.03200 
0.03200 
0.06300 
0.06300 
0.05250 
0.05250 
0.04550 
0.04550 
0.06400 
0.06400 
-0.14850 
-0.14850 
-0.02600 
-0.02600 
0.07550 
0.07550 
0.09750 
0.09750 
0.06950 
0.06950 
0.01000 
0.01000 
-0.07450 
-0.07450 
0.11150 
0.11150 
-0.05350 
-0.05350 
-0.00650 
-0.00650 
0.01100 
0.01100 
0.15750 
0.15750 
0.05750 
0.05750 
0.04950 
0.04950 
0.00450 
0.00450 
-0.05200 
-0.05200 
-0.02700 
-0.02700 
0.09150 
0.09150 
0.02650 
0.02650 
0.08000 
0.08000 
0.11450 
0.11450 
0.05300 
0.05300 
-0.00750 
-0.00750 
0.07000 
0.07000 
-0.03550 
-0.03550 
0.02150 
0.02150 
0.09000 
0.09000 
0.06800 
0.06800 
0.10800 
0.10800 
0.05850 
0.05850 
-0.00550 
-0.00550 
0.08650 
0.08650 
0.05850 
0.05850 
-0.00300 
-0.00300 
-0.00150 
-0.00150 
0.09700 
0.09700 
0.09900 
0.09900 
0.04650 
0.04650 
0.04650 
0.04650 
0.09850 
0.09850 
0.10750 
0.10750 
0.12900 
0.12900 
0.08750 
0.08750 
-0.01750 
-0.01750 
0.08800 
0.08800 
-0.02100 
-0.02100 
0.03700 
0.03700 
0.07900 
0.07900 
-0.02400 
-0.02400 
0.00650 
0.00650 
-0.08650 
-0.08650 
0.10150 
0.10150 
0.09900 
0.09900 
0.10000 
0.10000 
0.07250 
0.07250 
0.08600 
0.08600 
-0.01100 
-0.01100 
0.17100 
0.17100 
0.07400 
0.07400 
-0.00800 
-0.00800 
0.01650 
0.01650 
-0.04100 
-0.04100 
0.02350 
0.02350 
0.04600 
0.04600 
0.03750 
0.03750 
-0.01900 
-0.01900 
0.02000 
0.02000 
0.15850 
0.15850 
0.06100 
0.06100 
0.05050 
0.05050 
-0.01750 
-0.01750 
0.02850 
0.02850 
0.07450 
0.07450 
0.11450 
0.11450 
0.13650 
0.13650 