# vtk DataFile Version 2.1 
Trajects from timestep 15 with color option 
ASCII 
 
DATASET POLYDATA POINTS 1018 float 
-5.620 1.204 -72.145 
-5.681 1.168 -72.312 
-6.242 -2.075 -73.274 
-6.336 -1.980 -73.331 
6.278 4.873 -69.083 
6.109 4.895 -69.112 
-2.844 5.155 -70.357 
-2.963 5.288 -70.476 
-6.541 8.332 -70.670 
-6.559 8.469 -70.703 
-4.878 4.160 -70.137 
-4.862 4.256 -70.208 
-9.358 1.510 -72.113 
-9.285 1.503 -72.295 
-6.053 -3.595 -70.782 
-5.959 -3.409 -70.797 
3.846 4.661 -67.610 
3.746 4.789 -67.671 
-7.072 5.511 -71.683 
-7.016 5.558 -71.732 
2.149 1.691 -71.803 
1.949 1.717 -71.984 
-0.697 9.450 -69.747 
-0.682 9.466 -69.869 
3.737 8.450 -71.357 
3.735 8.413 -71.493 
0.575 4.278 -68.180 
0.502 4.351 -68.281 
-0.139 5.770 -68.610 
-0.241 5.839 -68.726 
6.112 12.128 -72.430 
6.017 12.180 -72.590 
-3.866 -9.014 -71.207 
-3.901 -8.860 -71.235 
-9.422 4.141 -71.349 
-9.438 4.205 -71.365 
-11.484 -2.013 -71.871 
-11.635 -2.047 -72.021 
5.485 -3.987 -71.543 
5.569 -4.015 -71.684 
-1.979 9.011 -70.977 
-1.972 9.037 -71.248 
-10.746 6.981 -71.023 
-10.797 7.005 -70.986 
-4.985 -3.501 -72.088 
-5.037 -3.391 -72.091 
-0.928 10.359 -67.530 
-0.925 10.382 -67.645 
-8.985 8.151 -72.122 
-8.982 8.213 -72.188 
9.801 3.114 -72.845 
9.664 3.119 -72.984 
-3.928 10.215 -69.869 
-3.833 10.314 -69.953 
-5.578 4.355 -71.134 
-5.503 4.426 -71.294 
-9.671 7.803 -72.529 
-9.692 7.836 -72.588 
-12.258 10.250 -74.444 
-12.356 10.252 -74.451 
-5.422 -4.372 -71.972 
-5.381 -4.252 -71.938 
-5.906 3.657 -72.256 
-5.908 3.653 -72.378 
3.723 1.681 -71.429 
3.592 1.659 -71.549 
-3.152 -11.526 -68.960 
-3.116 -11.331 -69.055 
5.102 7.829 -66.103 
4.924 7.873 -66.166 
12.652 6.391 -67.809 
12.500 6.522 -67.975 
0.923 8.114 -74.882 
1.082 8.134 -75.039 
-5.467 2.105 -64.170 
-5.503 2.506 -64.179 
0.448 -6.686 -71.388 
0.377 -6.662 -71.393 
-0.659 10.642 -71.617 
-0.504 10.750 -71.735 
-11.471 -8.685 -69.611 
-11.465 -8.649 -69.289 
11.599 -3.428 -69.365 
11.586 -3.353 -69.315 
-6.722 9.604 -67.518 
-6.715 9.794 -67.626 
2.244 11.985 -68.456 
2.292 11.974 -68.540 
-2.836 -3.831 -76.005 
-2.895 -3.851 -76.082 
-4.829 1.699 -65.435 
-4.899 1.927 -65.548 
4.809 2.077 -65.707 
4.838 2.188 -65.731 
10.643 3.657 -67.253 
10.543 3.702 -67.274 
5.403 1.258 -67.188 
5.401 1.284 -67.237 
-2.143 -7.360 -72.349 
-2.242 -7.290 -72.415 
5.461 9.123 -72.352 
5.489 9.088 -72.530 
-7.755 11.651 -71.037 
-7.792 11.589 -71.182 
-3.365 10.936 -65.603 
-3.275 11.083 -65.705 
-4.052 11.289 -69.324 
-3.976 11.416 -69.522 
-1.158 0.019 -68.064 
-1.135 0.214 -68.223 
11.136 2.050 -69.944 
11.009 2.154 -69.999 
-1.169 -3.120 -73.182 
-1.211 -3.162 -73.306 
-3.667 -4.556 -66.040 
-3.522 -4.255 -66.134 
4.514 -0.048 -65.910 
4.469 0.025 -65.920 
14.843 1.074 -71.290 
14.749 1.189 -71.428 
-4.699 12.380 -69.505 
-4.659 12.427 -69.575 
2.567 2.237 -67.744 
2.589 2.349 -67.828 
3.393 9.076 -71.169 
3.331 9.039 -71.281 
-10.444 -8.794 -71.884 
-10.403 -8.523 -71.522 
7.170 0.120 -66.745 
7.226 0.147 -66.803 
11.024 -5.310 -63.957 
11.115 -5.122 -63.921 
5.864 -3.008 -75.616 
5.977 -3.028 -75.741 
-3.911 3.177 -67.767 
-3.902 3.422 -67.798 
-6.010 1.298 -63.928 
-6.018 1.710 -63.973 
-11.217 -0.914 -69.832 
-11.230 -0.967 -69.968 
0.579 2.346 -66.689 
0.652 2.467 -66.773 
-5.934 1.316 -66.101 
-5.951 1.635 -66.181 
-9.722 5.065 -66.486 
-9.790 5.148 -66.572 
-2.808 -1.253 -66.661 
-2.749 -1.000 -66.715 
-8.668 2.514 -65.764 
-8.600 2.702 -65.827 
-12.857 -1.846 -67.530 
-12.986 -1.735 -67.459 
0.070 -2.845 -65.130 
0.132 -2.621 -65.209 
-15.136 -9.839 -70.547 
-15.206 -9.788 -70.420 
-3.941 1.243 -69.033 
-3.952 1.509 -69.271 
5.670 4.163 -70.767 
5.542 4.155 -70.946 
-4.718 -4.294 -71.185 
-4.617 -4.191 -71.188 
5.074 -2.545 -70.600 
5.107 -2.537 -70.756 
-1.965 9.840 -68.056 
-1.964 9.869 -68.197 
12.360 -4.852 -71.686 
12.373 -4.864 -71.672 
6.281 11.933 -66.357 
6.365 12.024 -66.532 
-13.013 5.789 -70.254 
-13.134 5.699 -70.153 
5.571 12.177 -71.993 
5.538 12.234 -72.253 
-0.929 8.667 -68.912 
-0.958 8.666 -69.158 
10.502 5.616 -65.259 
10.445 5.828 -65.336 
6.437 -1.049 -66.374 
6.486 -0.922 -66.445 
-7.728 8.087 -66.381 
-7.666 8.315 -66.417 
10.155 9.373 -67.300 
9.984 9.356 -67.372 
12.688 0.439 -68.839 
12.612 0.441 -69.058 
6.853 -1.573 -71.884 
6.861 -1.642 -72.024 
-12.764 1.842 -69.545 
-12.798 1.835 -69.555 
-5.860 6.773 -65.324 
-5.853 6.977 -65.441 
-3.585 4.895 -70.125 
-3.706 4.983 -70.252 
-2.061 5.259 -68.785 
-2.047 5.437 -68.928 
0.264 -8.661 -67.646 
0.487 -8.390 -67.764 
7.853 1.264 -65.543 
7.849 1.333 -65.684 
8.450 12.898 -68.543 
8.360 12.986 -68.671 
-9.951 -2.815 -75.016 
-10.082 -2.821 -75.092 
4.615 -5.473 -66.606 
4.709 -5.354 -66.704 
1.475 0.687 -66.974 
1.480 0.763 -67.053 
-11.252 4.324 -62.262 
-11.228 4.580 -62.254 
10.853 -4.490 -67.432 
10.929 -4.319 -67.469 
13.640 -0.701 -68.188 
13.613 -0.627 -68.268 
8.941 -7.582 -72.768 
8.899 -7.539 -72.717 
-3.388 2.470 -73.788 
-3.256 2.467 -73.915 
2.306 -5.457 -66.951 
2.532 -5.198 -67.011 
14.288 11.559 -68.931 
14.052 11.706 -68.931 
4.320 -7.853 -69.597 
4.365 -7.780 -69.711 
5.695 -5.826 -65.867 
5.790 -5.654 -65.919 
10.595 0.317 -72.638 
10.435 0.353 -72.701 
9.463 8.000 -73.714 
9.198 7.961 -73.811 
9.522 8.940 -69.404 
9.315 9.072 -69.559 
-2.239 -2.952 -68.242 
-2.108 -2.700 -68.156 
-9.239 -10.893 -69.015 
-9.088 -10.761 -68.750 
-10.481 -5.098 -68.836 
-10.510 -4.902 -68.795 
7.510 -11.061 -68.994 
7.492 -10.986 -69.016 
-10.530 4.478 -66.904 
-10.593 4.474 -66.945 
-10.389 5.060 -62.217 
-10.375 5.216 -62.236 
1.620 7.475 -70.895 
1.549 7.446 -70.947 
-8.156 2.480 -63.442 
-8.102 2.724 -63.469 
5.655 -5.821 -70.742 
5.610 -5.792 -70.774 
-11.915 0.714 -67.019 
-11.971 0.714 -67.184 
2.873 -12.093 -69.799 
2.839 -12.099 -69.754 
1.324 11.174 -64.176 
1.461 11.393 -64.177 
11.650 3.051 -68.784 
11.481 2.971 -68.776 
-12.466 9.145 -69.972 
-12.489 9.097 -69.940 
6.582 -4.285 -63.201 
6.698 -4.061 -63.137 
-7.648 -9.206 -67.691 
-7.437 -8.966 -67.684 
0.761 -3.003 -65.129 
0.810 -2.737 -65.209 
-7.430 -1.649 -70.607 
-7.408 -1.731 -70.600 
4.114 -12.591 -71.151 
4.109 -12.697 -71.138 
8.551 -10.002 -68.889 
8.613 -9.871 -68.957 
-9.945 4.446 -68.047 
-9.947 4.383 -68.153 
10.851 6.421 -70.303 
10.654 6.537 -70.321 
5.325 1.505 -72.917 
5.212 1.488 -73.106 
-7.775 4.369 -73.489 
-7.707 4.379 -73.426 
5.804 -12.931 -66.586 
5.953 -12.893 -66.654 
-11.030 10.013 -70.847 
-11.013 9.961 -70.865 
1.582 0.017 -66.379 
1.625 0.138 -66.490 
-15.167 4.210 -72.139 
-15.237 4.017 -72.174 
-4.405 0.975 -61.654 
-4.496 1.217 -61.742 
1.309 -6.519 -62.877 
1.361 -6.248 -63.012 
4.956 -12.182 -66.266 
5.088 -12.162 -66.307 
14.456 4.243 -68.277 
14.444 4.213 -68.389 
1.877 11.570 -68.399 
1.914 11.578 -68.484 
7.896 -4.871 -66.631 
7.976 -4.775 -66.667 
-7.983 8.194 -71.159 
-7.922 8.126 -71.014 
-8.151 11.201 -64.121 
-8.173 11.513 -64.150 
3.464 11.794 -62.969 
3.535 12.068 -63.150 
-9.973 0.197 -67.305 
-9.970 0.169 -67.335 
3.640 -2.171 -62.897 
3.704 -1.987 -62.961 
8.020 6.532 -66.218 
7.968 6.644 -66.329 
1.207 -8.964 -72.203 
1.230 -9.034 -72.249 
-2.289 6.210 -60.824 
-2.301 6.480 -60.876 
-11.481 3.944 -67.957 
-11.548 3.825 -68.037 
0.188 0.554 -67.378 
0.210 0.728 -67.488 
0.292 13.116 -67.019 
0.338 13.188 -67.048 
-6.039 -5.138 -68.580 
-5.910 -4.911 -68.748 
-3.602 9.009 -70.364 
-3.695 9.108 -70.543 
-7.076 2.532 -64.789 
-7.061 2.829 -64.957 
12.376 3.536 -69.683 
12.262 3.625 -69.764 
4.062 0.561 -69.979 
4.127 0.672 -70.195 
9.417 11.301 -66.160 
9.514 11.320 -66.160 
8.459 1.498 -64.355 
8.536 1.692 -64.456 
2.740 -3.959 -64.034 
2.846 -3.785 -63.912 
7.967 9.009 -69.039 
7.707 9.032 -69.186 
-13.195 -0.403 -68.739 
-13.290 -0.454 -68.823 
3.502 6.003 -65.380 
3.380 6.087 -65.429 
-1.739 -8.990 -66.502 
-1.452 -8.783 -66.628 
5.344 3.087 -73.013 
5.292 3.158 -73.267 
5.178 -11.297 -68.320 
5.207 -11.310 -68.366 
9.816 -5.350 -74.237 
9.863 -5.417 -74.305 
-10.634 -7.657 -70.302 
-10.632 -7.629 -70.141 
17.349 1.566 -69.475 
17.346 1.635 -69.530 
8.078 9.138 -66.170 
7.983 9.114 -66.230 
0.496 5.017 -62.748 
0.451 5.164 -62.780 
9.221 -0.134 -65.350 
9.206 0.013 -65.318 
-12.368 -6.239 -69.062 
-12.297 -6.076 -68.929 
9.258 3.573 -72.551 
9.143 3.632 -72.740 
3.144 -9.093 -68.380 
3.207 -9.067 -68.442 
3.024 3.747 -61.924 
2.978 3.934 -62.002 
13.571 -7.637 -70.323 
13.554 -7.496 -70.438 
14.655 -12.173 -66.116 
14.755 -12.056 -65.998 
2.925 13.201 -66.105 
3.089 13.229 -66.169 
3.126 -5.337 -74.095 
3.080 -5.350 -74.265 
-11.189 4.048 -70.135 
-11.236 4.066 -70.152 
-8.290 -10.756 -68.775 
-8.290 -10.536 -68.645 
-3.097 11.931 -64.432 
-3.014 12.142 -64.793 
9.598 6.703 -63.888 
9.521 6.969 -63.920 
-5.549 5.902 -72.493 
-5.650 5.971 -72.599 
-5.957 -12.337 -72.030 
-5.806 -12.391 -71.927 
15.435 11.558 -70.025 
15.238 11.709 -70.019 
-11.388 -10.391 -72.532 
-11.328 -10.450 -72.481 
5.074 5.294 -63.170 
5.035 5.388 -63.208 
-6.641 12.044 -63.633 
-6.641 12.254 -63.727 
-4.672 4.559 -73.703 
-4.560 4.588 -73.821 
8.517 10.417 -66.213 
8.645 10.517 -66.286 
10.136 -1.239 -70.976 
10.049 -1.109 -71.022 
-12.948 -11.098 -69.601 
-13.143 -10.944 -69.289 
6.980 -6.920 -69.062 
7.017 -6.979 -69.148 
-7.262 10.008 -72.100 
-7.247 10.068 -72.164 
10.052 8.575 -64.759 
9.986 8.645 -64.777 
5.254 -0.740 -73.450 
5.173 -0.806 -73.631 
-1.172 7.901 -68.177 
-1.346 8.020 -68.243 
-6.288 -2.524 -63.449 
-6.225 -2.228 -63.488 
16.695 0.638 -68.575 
16.687 0.790 -68.657 
-4.306 8.572 -61.132 
-4.367 8.973 -61.408 
-12.926 -1.349 -69.804 
-12.995 -1.307 -69.779 
-3.196 -7.894 -75.629 
-3.319 -7.775 -75.698 
9.829 -1.179 -68.580 
9.861 -1.044 -68.707 
7.551 -5.060 -69.790 
7.562 -5.108 -69.795 
-15.904 -9.906 -74.506 
-15.856 -9.635 -74.649 
13.268 10.122 -74.385 
13.092 10.170 -74.353 
-11.579 -3.209 -71.128 
-11.750 -3.129 -71.132 
1.491 -2.977 -62.084 
1.604 -2.708 -62.000 
13.616 7.133 -63.628 
13.573 7.230 -63.878 
-8.362 -3.113 -72.192 
-8.480 -3.109 -72.342 
-2.182 7.062 -70.447 
[...]
POINT_DATA 1018 
SCALARS Umean double 1 
LOOKUP_TABLE default
0.09070 
0.09070 
0.07265 
0.07265 
0.08644 
0.08644 
0.10725 
0.10725 
0.07103 
0.07103 
0.06023 
0.06023 
0.09811 
0.09811 
0.10447 
0.10447 
0.08675 
0.08675 
0.04401 
0.04401 
0.13550 
0.13550 
0.06198 
0.06198 
0.07048 
0.07048 
0.07221 
0.07221 
0.08459 
0.08459 
0.09660 
0.09660 
0.08020 
0.08020 
0.03394 
0.03394 
0.10777 
0.10777 
0.08325 
0.08325 
0.13617 
0.13617 
0.03371 
0.03371 
0.06085 
0.06085 
0.05866 
0.05866 
0.04530 
0.04530 
0.09762 
0.09762 
0.08044 
0.08044 
0.09522 
0.09522 
0.03539 
0.03539 
0.04914 
0.04914 
0.06564 
0.06564 
0.06104 
0.06104 
0.08951 
0.08951 
0.10994 
0.10994 
0.09694 
0.09694 
0.13021 
0.13021 
0.11217 
0.11217 
0.20136 
0.20136 
0.03756 
0.03756 
0.11137 
0.11137 
0.16203 
0.16203 
0.04554 
0.04554 
0.10933 
0.10933 
0.04869 
0.04869 
0.04952 
0.04952 
0.13196 
0.13196 
0.05860 
0.05860 
0.05583 
0.05583 
0.02775 
0.02775 
0.06902 
0.06902 
0.09178 
0.09178 
0.08099 
0.08099 
0.10014 
0.10014 
0.12360 
0.12360 
0.12633 
0.12633 
0.08656 
0.08656 
0.06875 
0.06875 
0.17354 
0.17354 
0.04317 
0.04317 
0.10137 
0.10137 
0.04666 
0.04666 
0.07086 
0.07086 
0.06663 
0.06663 
0.22703 
0.22703 
0.04251 
0.04251 
0.10597 
0.10597 
0.08484 
0.08484 
0.12356 
0.12356 
0.20726 
0.20726 
0.07327 
0.07327 
0.08220 
0.08220 
0.16466 
0.16466 
0.06875 
0.06875 
0.13267 
0.13267 
0.10481 
0.10481 
0.09220 
0.09220 
0.12274 
0.12274 
0.07686 
0.07686 
0.17855 
0.17855 
0.11010 
0.11010 
0.07214 
0.07214 
0.07983 
0.07983 
0.07198 
0.07198 
0.01128 
0.01128 
0.10719 
0.10719 
0.09075 
0.09075 
0.13411 
0.13411 
0.12385 
0.12385 
0.11632 
0.11632 
0.07676 
0.07676 
0.11950 
0.11950 
0.09316 
0.09316 
0.11591 
0.11591 
0.07814 
0.07814 
0.01806 
0.01806 
0.11764 
0.11764 
0.09812 
0.09812 
0.11438 
0.11438 
0.18513 
0.18513 
0.07851 
0.07851 
0.08976 
0.08976 
0.07578 
0.07578 
0.09028 
0.09028 
0.05487 
0.05487 
0.12862 
0.12862 
0.09538 
0.09538 
0.05614 
0.05614 
0.03941 
0.03941 
0.09160 
0.09160 
0.17447 
0.17447 
0.13902 
0.13902 
0.07133 
0.07133 
0.10163 
0.10163 
0.08784 
0.08784 
0.14244 
0.14244 
0.14517 
0.14517 
0.14838 
0.14838 
0.16617 
0.16617 
0.10117 
0.10117 
0.04010 
0.04010 
0.03764 
0.03764 
0.07889 
0.07889 
0.04633 
0.04633 
0.12568 
0.12568 
0.03118 
0.03118 
0.08712 
0.08712 
0.02836 
0.02836 
0.12916 
0.12916 
0.09357 
0.09357 
0.03105 
0.03105 
0.13012 
0.13012 
0.15982 
0.15982 
0.14103 
0.14103 
0.04259 
0.04259 
0.05346 
0.05346 
0.08005 
0.08005 
0.06166 
0.06166 
0.11466 
0.11466 
0.11043 
0.11043 
0.04662 
0.04662 
0.08407 
0.08407 
0.02880 
0.02880 
0.08487 
0.08487 
0.10413 
0.10413 
0.13655 
0.13655 
0.15360 
0.15360 
0.06983 
0.06983 
0.05828 
0.05828 
0.04652 
0.04652 
0.06502 
0.06502 
0.08569 
0.08569 
0.15706 
0.15706 
0.16799 
0.16799 
0.02057 
0.02057 
0.10253 
0.10253 
0.08302 
0.08302 
0.04343 
0.04343 
0.13761 
0.13761 
0.07914 
0.07914 
0.10351 
0.10351 
0.04511 
0.04511 
0.15524 
0.15524 
0.11235 
0.11235 
0.17078 
0.17078 
0.08288 
0.08288 
0.12570 
0.12570 
0.04942 
0.04942 
0.11594 
0.11594 
0.11874 
0.11874 
0.14978 
0.14978 
0.06834 
0.06834 
0.07801 
0.07801 
0.18781 
0.18781 
0.13441 
0.13441 
0.02796 
0.02796 
0.05320 
0.05320 
0.08171 
0.08171 
0.04414 
0.04414 
0.05745 
0.05745 
0.07851 
0.07851 
0.07559 
0.07559 
0.11102 
0.11102 
0.11448 
0.11448 
0.04607 
0.04607 
0.10389 
0.10389 
0.09137 
0.09137 
0.09697 
0.09697 
0.08913 
0.08913 
0.08830 
0.08830 
0.02656 
0.02656 
0.12777 
0.12777 
0.21315 
0.21315 
0.13938 
0.13938 
0.08093 
0.08093 
0.09530 
0.09530 
0.12414 
0.12414 
0.04920 
0.04920 
0.05432 
0.05432 
0.11504 
0.11504 
0.08263 
0.08263 
0.08904 
0.08904 
0.08152 
0.08152 
0.19943 
0.19943 
0.05533 
0.05533 
0.04450 
0.04450 
0.04894 
0.04894 
0.10450 
0.10450 
0.11045 
0.11045 
0.15257 
0.15257 
0.08645 
0.08645 
0.24530 
0.24530 
0.04228 
0.04228 
0.09226 
0.09226 
0.09405 
0.09405 
0.02475 
0.02475 
0.15508 
0.15508 
0.09261 
0.09261 
0.09442 
0.09442 
0.15181 
0.15181 
0.13579 
0.13579 
0.09545 
0.09545 
0.13698 
0.13698 
0.11763 
0.11763 
0.08941 
0.08941 
0.16218 
0.16218 
0.19795 
0.19795 
0.16142 
0.16142 
0.09731 
0.09731 
0.02428 
0.02428 
0.07225 
0.07225 
0.20394 
0.20394 
0.04488 
0.04488 
0.10173 
0.10173 
0.08696 
0.08696 
0.08335 
0.08335 
0.09998 
0.09998 
0.09551 
0.09551 
0.14964 
0.14964 
0.11321 
0.11321 
0.09190 
0.09190 
0.11082 
0.11082 
0.02635 
0.02635 
0.11801 
0.11801 
0.06808 
0.06808 
0.12645 
0.12645 
0.12298 
0.12298 
0.03916 
0.03916 
0.17398 
0.17398 
0.10563 
0.10563 
0.06291 
0.06291 
0.18254 
0.18254 
0.21438 
0.21438 
0.12672 
0.12672 
0.14074 
0.14074 
0.07436 
0.07436 
0.10735 
0.10735 
0.13823 
0.13823 
0.11773 
0.11773 
0.12678 
0.12678 
0.09545 
0.09545 
0.04219 
0.04219 
0.10375 
0.10375 
0.08512 
0.08512 
0.13582 
0.13582 
0.08545 
0.08545 
0.09977 
0.09977 
0.09010 
0.09010 
0.11832 
0.11832 
0.11044 
0.11044 
0.05494 
0.05494 
0.09010 
0.09010 
0.12257 
0.12257 
0.09469 
0.09469 
0.11989 
0.11989 
0.15643 
0.15643 
0.07770 
0.07770 
0.10765 
0.10765 
0.09123 
0.09123 
0.05687 
0.05687 
0.08398 
0.08398 
0.11620 
0.11620 
0.08533 
0.08533 
0.13327 
0.13327 
0.09603 
0.09603 
0.09656 
0.09656 
0.15154 
0.15154 
0.04082 
0.04082 
0.02637 
0.02637 
0.14117 
0.14117 
0.07814 
0.07814 
0.09504 
0.09504 
0.16345 
0.16345 
0.12469 
0.12469 
0.01146 
0.01146 
0.17084 
0.17084 
0.05961 
0.05961 
0.13140 
0.13140 
0.10520 
0.10520 
0.02031 
0.02031 
0.05234 
0.05234 
0.12936 
0.12936 
0.13283 
0.13283 
0.07922 
0.07922 
0.08091 
0.08091 
0.12988 
0.12988 
0.05076 
0.05076 
0.05665 
0.05665 
0.06140 
0.06140 
0.06873 
0.06873 
0.20049 
0.20049 
0.02630 
0.02630 
0.11210 
0.11210 
0.09898 
0.09898 
0.07267 
0.07267 
0.06161 
0.06161 
0.13555 
0.13555 
0.15363 
0.15363 
0.19174 
0.19174 
0.18082 
0.18082 
0.06313 
0.06313 
0.10776 
0.10776 
0.10962 
0.10962 
0.14227 
0.14227 
0.06836 
0.06836 
0.03581 
0.03581 
0.12464 
0.12464 
0.06192 
0.06192 
0.02885 
0.02885 
0.10399 
0.10399 
0.06629 
0.06629 
0.16719 
0.16719 
0.09792 
0.09792 
0.06382 
0.06382 
0.01379 
0.01379 
0.05453 
0.05453 
0.03228 
0.03228 
0.09332 
0.09332 
0.08152 
0.08152 
0.06146 
0.06146 
0.09965 
0.09965 
0.07253 
0.07253 
0.06264 
0.06264 
0.09172 
0.09172 
0.10918 
0.10918 
0.11556 
0.11556 
0.10216 
0.10216 
0.07172 
0.07172 
0.11072 
0.11072 
0.06987 
0.06987 
0.12061 
0.12061 
0.13168 
0.13168 
0.07532 
0.07532 
0.08052 
0.08052 
0.10719 
0.10719 
0.07944 
0.07944 
0.13058 
0.13058 
0.11753 
0.11753 
0.09967 
0.09967 
0.08396 
0.08396 
0.10480 
0.10480 
0.07585 
0.07585 
0.10529 
0.10529 
0.12522 
0.12522 
0.16881 
0.16881 
0.21750 
0.21750 
0.08848 
0.08848 
0.05349 
0.05349 
0.10798 
0.10798 
0.02246 
0.02246 
0.21795 
0.21795 
0.09242 
0.09242 
0.19398 
0.19398 
0.08290 
0.08290 
0.06970 
0.06970 
0.10401 
0.10401 
0.12673 
0.12673 
0.11668 
0.11668 
0.11382 
0.11382 
0.03628 
0.03628 
0.20488 
0.20488 
0.11942 
0.11942 
0.07113 
0.07113 
0.09991 
0.09991 
0.10515 
0.10515 
0.16196 
0.16196 
0.07065 
0.07065 
0.16723 
0.16723 
0.11657 
0.11657 
0.10620 
0.10620 
0.06964 
0.06964 
0.07780 
0.07780 
0.08893 
0.08893 
0.16036 
0.16036 
0.11133 
0.11133 
0.08254 
0.08254 
0.06350 
0.06350 
0.04145 
0.04145 
0.07895 
0.07895 
0.01246 
0.01246 
0.21140 
0.21140 
0.08801 
0.08801 
0.21131 
0.21131 
0.16056 
0.16056 
0.01883 
0.01883 
0.14002 
0.14002 
0.13626 
0.13626 
0.10453 
0.10453 
0.04776 
0.04776 
0.05755 
0.05755 
0.12899 
0.12899 
0.14596 
0.14596 
0.11358 
0.11358 
0.08484 
0.08484 
0.16310 
0.16310 
0.07005 
0.07005 
0.13629 
0.13629 
0.12236 
0.12236 
0.12160 
0.12160 
0.14052 
0.14052 
0.07921 
0.07921 
0.17456 
0.17456 
0.10646 
0.10646 
0.09290 
0.09290 
0.07837 
0.07837 
0.10500 
0.10500 
0.07190 
0.07190 
0.05284 
0.05284 
0.04747 
0.04747 
0.07593 
0.07593 
0.04945 
0.04945 
0.12645 
0.12645 
0.10246 
0.10246 
0.05660 
0.05660 
0.08677 
0.08677 
0.20005 
0.20005 
0.15493 
0.15493 
0.09508 
0.09508 
0.15832 
0.15832 
0.10734 
0.10734 
0.12549 
0.12549 
0.10512 
0.10512 
0.08373 
0.08373 
0.07075 
0.07075 
0.11295 
0.11295 
0.11326 
0.11326 
0.02612 
0.02612 
0.09567 
0.09567 
0.13258 
0.13258 
0.08982 
0.08982 
0.07299 
0.07299 
0.10043 
0.10043 
0.10542 
0.10542 
0.18665 
0.18665 
0.08736 
0.08736 
0.10044 
0.10044 
0.02419 
0.02419 
0.07522 
0.07522 
0.12078 
0.12078 
0.08546 
0.08546 
0.07156 
0.07156 
0.07555 
0.07555 
0.08449 
0.08449 
0.08087 
0.08087 
0.10848 
0.10848 
0.09690 
0.09690 
0.08875 
0.08875 
0.12405 
0.12405 
0.11930 
0.11930 
0.14884 
0.14884 
0.06720 
0.06720 
0.17823 
0.17823 
0.06204 
0.06204 
0.10778 
0.10778 
0.12143 
0.12143 
0.06482 
0.06482 
0.07126 
0.07126 
0.12487 
0.12487 
0.05684 
0.05684 
0.11079 
0.11079 
0.07236 
0.07236 
0.07894 
0.07894 
0.19107 
0.19107 
0.05463 
0.05463 
0.07290 
0.07290 
0.06385 
0.06385 
0.05139 
0.05139 
0.08228 
0.08228 
0.21108 
0.21108 
0.06564 
0.06564 
0.06648 
0.06648 
0.11346 
0.11346 
0.08450 
0.08450 
0.08327 
0.08327 
0.11622 
0.11622 
0.14788 
0.14788 
0.02541 
0.02541 
0.09769 
0.09769 
0.06434 
0.06434 
0.07501 
0.07501 
0.15214 
0.15214 
0.18852 
0.18852 
0.13536 
0.13536 
0.04460 
0.04460 
0.10076 
0.10076 
0.17931 
0.17931 
0.13744 
0.13744 
0.08358 
0.08358 
0.17582 
0.17582 
0.10893 
0.10893 
SCALARS Umean_X double 1 
LOOKUP_TABLE default
-0.03050 
-0.03050 
-0.04700 
-0.04700 
-0.08450 
-0.08450 
-0.05950 
-0.05950 
-0.00900 
-0.00900 
0.00800 
0.00800 
0.03650 
0.03650 
0.04700 
0.04700 
-0.05000 
-0.05000 
0.02800 
0.02800 
-0.10000 
-0.10000 
0.00750 
0.00750 
-0.00100 
-0.00100 
-0.03650 
-0.03650 
-0.05100 
-0.05100 
-0.04750 
-0.04750 
-0.01750 
-0.01750 
-0.00800 
-0.00800 
-0.07550 
-0.07550 
0.04200 
0.04200 
0.00350 
0.00350 
-0.02550 
-0.02550 
-0.02600 
-0.02600 
0.00150 
0.00150 
0.00150 
0.00150 
-0.06850 
-0.06850 
0.04750 
0.04750 
0.03750 
0.03750 
-0.01050 
-0.01050 
-0.04900 
-0.04900 
0.02050 
0.02050 
-0.00100 
-0.00100 
-0.06550 
-0.06550 
0.01800 
0.01800 
-0.08900 
-0.08900 
-0.07600 
-0.07600 
0.07950 
0.07950 
-0.01800 
-0.01800 
-0.03550 
-0.03550 
0.07750 
0.07750 
0.00300 
0.00300 
-0.00650 
-0.00650 
0.00350 
0.00350 
0.02400 
0.02400 
-0.02950 
-0.02950 
-0.03500 
-0.03500 
0.01450 
0.01450 
-0.05000 
-0.05000 
-0.00100 
-0.00100 
-0.04950 
-0.04950 
0.01400 
0.01400 
-0.01850 
-0.01850 
0.04500 
0.04500 
0.03800 
0.03800 
0.01150 
0.01150 
-0.06350 
-0.06350 
-0.02100 
-0.02100 
0.07250 
0.07250 
-0.02250 
-0.02250 
-0.04700 
-0.04700 
0.02000 
0.02000 
0.01100 
0.01100 
-0.03100 
-0.03100 
0.02050 
0.02050 
0.02800 
0.02800 
0.04550 
0.04550 
0.05650 
0.05650 
0.00450 
0.00450 
-0.00400 
-0.00400 
-0.00650 
-0.00650 
0.03650 
0.03650 
-0.00850 
-0.00850 
-0.03400 
-0.03400 
0.02950 
0.02950 
0.03400 
0.03400 
-0.06450 
-0.06450 
0.03100 
0.03100 
-0.03500 
-0.03500 
-0.00550 
-0.00550 
-0.06400 
-0.06400 
0.05050 
0.05050 
0.01650 
0.01650 
0.00050 
0.00050 
0.00650 
0.00650 
0.04200 
0.04200 
-0.06050 
-0.06050 
-0.01650 
-0.01650 
-0.01450 
-0.01450 
-0.02850 
-0.02850 
0.02450 
0.02450 
0.03100 
0.03100 
-0.08550 
-0.08550 
-0.03800 
-0.03800 
0.00400 
0.00400 
-0.01700 
-0.01700 
0.00350 
0.00350 
-0.06050 
-0.06050 
0.00700 
0.00700 
0.11150 
0.11150 
-0.00200 
-0.00200 
-0.04500 
-0.04500 
-0.06550 
-0.06550 
0.04700 
0.04700 
0.00250 
0.00250 
0.01200 
0.01200 
0.03800 
0.03800 
-0.01350 
-0.01350 
-0.02100 
-0.02100 
0.06600 
0.06600 
0.11300 
0.11300 
-0.11800 
-0.11800 
0.02250 
0.02250 
0.04750 
0.04750 
-0.08000 
-0.08000 
-0.13250 
-0.13250 
-0.10350 
-0.10350 
0.06550 
0.06550 
0.07550 
0.07550 
-0.01450 
-0.01450 
-0.00900 
-0.00900 
-0.03150 
-0.03150 
0.00700 
0.00700 
-0.03550 
-0.03550 
0.02700 
0.02700 
-0.02250 
-0.02250 
-0.02800 
-0.02800 
-0.01700 
-0.01700 
0.06850 
0.06850 
-0.08450 
-0.08450 
-0.01150 
-0.01150 
0.05800 
0.05800 
0.10550 
0.10550 
0.02450 
0.02450 
0.01100 
0.01100 
-0.00250 
-0.00250 
0.03100 
0.03100 
-0.00100 
-0.00100 
-0.09850 
-0.09850 
-0.05650 
-0.05650 
0.03400 
0.03400 
0.07450 
0.07450 
0.00850 
0.00850 
0.02150 
0.02150 
-0.03500 
-0.03500 
-0.04550 
-0.04550 
0.02600 
0.02600 
0.06600 
0.06600 
-0.00600 
-0.00600 
0.01850 
0.01850 
0.04000 
0.04000 
0.03050 
0.03050 
-0.01100 
-0.01100 
0.03550 
0.03550 
0.00150 
0.00150 
0.03200 
0.03200 
-0.02600 
-0.02600 
0.01150 
0.01150 
-0.00600 
-0.00600 
-0.03350 
-0.03350 
0.01100 
0.01100 
0.02300 
0.02300 
0.06450 
0.06450 
-0.04650 
-0.04650 
0.00750 
0.00750 
-0.05700 
-0.05700 
0.03250 
0.03250 
0.04850 
0.04850 
0.03850 
0.03850 
0.05300 
0.05300 
-0.13000 
-0.13000 
-0.04750 
-0.04750 
-0.06100 
-0.06100 
0.14350 
0.14350 
-0.02600 
-0.02600 
0.01450 
0.01450 
0.02350 
0.02350 
0.00100 
0.00100 
-0.00150 
-0.00150 
-0.04750 
-0.04750 
-0.02250 
-0.02250 
-0.00750 
-0.00750 
0.03550 
0.03550 
-0.05750 
-0.05750 
0.03150 
0.03150 
-0.02300 
-0.02300 
-0.00850 
-0.00850 
0.05000 
0.05000 
0.08200 
0.08200 
-0.02300 
-0.02300 
-0.02350 
-0.02350 
-0.00000 
-0.00000 
0.04150 
0.04150 
-0.03850 
-0.03850 
-0.05050 
-0.05050 
0.07550 
0.07550 
-0.09850 
-0.09850 
0.03000 
0.03000 
-0.01950 
-0.01950 
-0.00000 
-0.00000 
0.05600 
0.05600 
0.06400 
0.06400 
-0.04350 
-0.04350 
-0.09750 
-0.09750 
0.01850 
0.01850 
0.00750 
0.00750 
-0.03300 
-0.03300 
-0.04050 
-0.04050 
-0.08700 
-0.08700 
0.03150 
0.03150 
-0.00400 
-0.00400 
-0.03050 
-0.03050 
-0.03450 
-0.03450 
-0.06150 
-0.06150 
0.01600 
0.01600 
0.00550 
0.00550 
0.02400 
0.02400 
-0.08800 
-0.08800 
-0.08550 
-0.08550 
0.05650 
0.05650 
-0.02150 
-0.02150 
-0.05900 
-0.05900 
-0.04150 
-0.04150 
0.00450 
0.00450 
0.04150 
0.04150 
-0.01950 
-0.01950 
0.08900 
0.08900 
-0.02250 
-0.02250 
0.08300 
0.08300 
-0.01300 
-0.01300 
-0.03900 
-0.03900 
-0.05200 
-0.05200 
-0.01800 
-0.01800 
0.06200 
0.06200 
-0.01600 
-0.01600 
-0.01500 
-0.01500 
0.05050 
0.05050 
-0.01600 
-0.01600 
-0.01850 
-0.01850 
-0.05300 
-0.05300 
-0.07950 
-0.07950 
-0.01250 
-0.01250 
0.02500 
0.02500 
-0.03700 
-0.03700 
-0.02500 
-0.02500 
0.04100 
0.04100 
-0.07150 
-0.07150 
-0.02900 
-0.02900 
0.07000 
0.07000 
0.07750 
0.07750 
-0.00600 
-0.00600 
0.10950 
0.10950 
0.11200 
0.11200 
0.02450 
0.02450 
0.06200 
0.06200 
-0.06350 
-0.06350 
0.02400 
0.02400 
-0.00550 
-0.00550 
-0.01300 
-0.01300 
-0.09450 
-0.09450 
-0.02050 
-0.02050 
-0.03150 
-0.03150 
0.01750 
0.01750 
0.05450 
0.05450 
0.05850 
0.05850 
-0.00200 
-0.00200 
0.04150 
0.04150 
0.03150 
0.03150 
-0.11800 
-0.11800 
0.04300 
0.04300 
0.00300 
0.00300 
0.08200 
0.08200 
-0.10000 
-0.10000 
-0.08900 
-0.08900 
0.07750 
0.07750 
0.02350 
0.02350 
-0.00000 
-0.00000 
0.04600 
0.04600 
0.02200 
0.02200 
0.03200 
0.03200 
0.00450 
0.00450 
0.01300 
0.01300 
-0.08250 
-0.08250 
0.00400 
0.00400 
-0.04950 
-0.04950 
-0.05550 
-0.05550 
-0.03700 
-0.03700 
-0.01300 
-0.01300 
-0.02150 
-0.02150 
-0.11700 
-0.11700 
0.00900 
0.00900 
-0.00200 
-0.00200 
0.03900 
0.03900 
-0.02250 
-0.02250 
0.00500 
0.00500 
0.14050 
0.14050 
-0.04050 
-0.04050 
0.03300 
0.03300 
0.00400 
0.00400 
0.00050 
0.00050 
-0.00700 
-0.00700 
-0.04050 
-0.04050 
0.03000 
0.03000 
-0.02150 
-0.02150 
-0.00550 
-0.00550 
-0.01450 
-0.01450 
-0.00500 
-0.00500 
-0.01350 
-0.01350 
0.01600 
0.01600 
0.00400 
0.00400 
-0.10700 
-0.10700 
-0.00950 
-0.00950 
-0.08000 
-0.08000 
-0.05450 
-0.05450 
-0.04500 
-0.04500 
0.00700 
0.00700 
0.06450 
0.06450 
-0.06900 
-0.06900 
0.09000 
0.09000 
0.05400 
0.05400 
-0.03250 
-0.03250 
0.04200 
0.04200 
0.08600 
0.08600 
-0.00600 
-0.00600 
-0.04300 
-0.04300 
-0.01700 
-0.01700 
0.00650 
0.00650 
-0.02400 
-0.02400 
-0.01950 
-0.01950 
-0.09750 
-0.09750 
0.02550 
0.02550 
0.10450 
0.10450 
0.03650 
0.03650 
0.03800 
0.03800 
0.00600 
0.00600 
-0.00150 
-0.00150 
-0.03100 
-0.03100 
-0.09150 
-0.09150 
-0.01650 
-0.01650 
-0.05150 
-0.05150 
-0.08300 
-0.08300 
-0.01200 
-0.01200 
-0.04100 
-0.04100 
0.03050 
0.03050 
0.05300 
0.05300 
0.04350 
0.04350 
0.06600 
0.06600 
0.00550 
0.00550 
-0.03800 
-0.03800 
0.01500 
0.01500 
0.00350 
0.00350 
-0.08100 
-0.08100 
0.03100 
0.03100 
0.01750 
0.01750 
0.06200 
0.06200 
0.03700 
0.03700 
0.09400 
0.09400 
-0.03300 
-0.03300 
0.01600 
0.01600 
0.01050 
0.01050 
0.05300 
0.05300 
0.04400 
0.04400 
0.01400 
0.01400 
-0.08000 
-0.08000 
0.03250 
0.03250 
0.17800 
0.17800 
0.08600 
0.08600 
0.04000 
0.04000 
0.09850 
0.09850 
-0.00050 
-0.00050 
0.13300 
0.13300 
-0.06700 
-0.06700 
0.12900 
0.12900 
-0.00950 
-0.00950 
0.05000 
0.05000 
-0.00250 
-0.00250 
-0.01900 
-0.01900 
0.07500 
0.07500 
-0.00100 
-0.00100 
-0.03100 
-0.03100 
0.12200 
0.12200 
-0.06800 
-0.06800 
0.01200 
0.01200 
0.07500 
0.07500 
-0.02300 
-0.02300 
-0.06350 
-0.06350 
0.00850 
0.00850 
0.12800 
0.12800 
0.05500 
0.05500 
0.00950 
0.00950 
0.00500 
0.00500 
0.04100 
0.04100 
0.06550 
0.06550 
0.07400 
0.07400 
0.00850 
0.00850 
-0.01500 
-0.01500 
-0.02700 
-0.02700 
-0.00150 
-0.00150 
0.04650 
0.04650 
0.00700 
0.00700 
0.04200 
0.04200 
0.03000 
0.03000 
0.00900 
0.00900 
0.05800 
0.05800 
0.00950 
0.00950 
0.09300 
0.09300 
0.05300 
0.05300 
-0.00000 
-0.00000 
0.02500 
0.02500 
-0.00000 
-0.00000 
0.04100 
0.04100 
-0.03500 
-0.03500 
-0.10550 
-0.10550 
-0.06450 
-0.06450 
0.06450 
0.06450 
0.03200 
0.03200 
0.02050 
0.02050 
0.01850 
0.01850 
0.02900 
0.02900 
-0.03800 
-0.03800 
-0.00950 
-0.00950 
-0.03650 
-0.03650 
-0.00450 
-0.00450 
0.03850 
0.03850 
-0.01450 
-0.01450 
-0.03350 
-0.03350 
0.02800 
0.02800 
-0.02750 
-0.02750 
-0.01300 
-0.01300 
0.03800 
0.03800 
-0.01650 
-0.01650 
-0.07000 
-0.07000 
-0.06100 
-0.06100 
-0.03100 
-0.03100 
0.00550 
0.00550 
-0.08300 
-0.08300 
-0.03100 
-0.03100 
-0.00600 
-0.00600 
-0.02000 
-0.02000 
0.02700 
0.02700 
-0.03850 
-0.03850 
-0.01700 
-0.01700 
-0.02600 
-0.02600 
0.06800 
0.06800 
0.07450 
0.07450 
0.01500 
0.01500 
0.00400 
0.00400 
-0.01100 
-0.01100 
0.08150 
0.08150 
-0.04650 
-0.04650 
-0.03750 
-0.03750 
0.02700 
0.02700 
-0.04300 
-0.04300 
0.10650 
0.10650 
-0.02950 
-0.02950 
0.03950 
0.03950 
0.01000 
0.01000 
0.02650 
0.02650 
-0.07100 
-0.07100 
-0.01100 
-0.01100 
-0.04350 
-0.04350 
-0.07050 
-0.07050 
-0.02300 
-0.02300 
0.01850 
0.01850 
0.02450 
0.02450 
-0.06450 
-0.06450 
0.01850 
0.01850 
-0.08750 
-0.08750 
-0.10850 
-0.10850 
0.08000 
0.08000 
-0.01550 
-0.01550 
-0.13800 
-0.13800 
0.03900 
0.03900 
-0.07600 
-0.07600 
0.05000 
0.05000 
0.04700 
0.04700 
-0.04900 
-0.04900 
-0.03950 
-0.03950 
0.05150 
0.05150 
-0.09300 
-0.09300 
-0.05350 
-0.05350 
-0.07800 
-0.07800 
0.02000 
0.02000 
-0.02950 
-0.02950 
-0.04700 
-0.04700 
0.02000 
0.02000 
-0.03150 
-0.03150 
-0.03100 
-0.03100 
0.13550 
0.13550 
0.01400 
0.01400 
-0.04600 
-0.04600 
0.03950 
0.03950 
-0.01000 
-0.01000 
0.04400 
0.04400 
0.00350 
0.00350 
-0.01800 
-0.01800 
-0.00700 
-0.00700 
0.01500 
0.01500 
-0.03300 
-0.03300 
0.01850 
0.01850 
-0.06500 
-0.06500 
-0.06250 
-0.06250 
0.02300 
0.02300 
-0.01700 
-0.01700 
-0.08600 
-0.08600 
0.05450 
0.05450 
-0.04750 
-0.04750 
-0.04600 
-0.04600 
-0.03200 
-0.03200 
-0.07550 
-0.07550 
SCALARS Umean_Y double 1 
LOOKUP_TABLE default
-0.01800 
-0.01800 
0.04750 
0.04750 
0.01100 
0.01100 
0.06650 
0.06650 
0.06850 
0.06850 
0.04800 
0.04800 
-0.00350 
-0.00350 
0.09300 
0.09300 
0.06400 
0.06400 
0.02350 
0.02350 
0.01300 
0.01300 
0.00800 
0.00800 
-0.01850 
-0.01850 
0.03650 
0.03650 
0.03450 
0.03450 
0.02600 
0.02600 
0.07700 
0.07700 
0.03200 
0.03200 
-0.01700 
-0.01700 
-0.01400 
-0.01400 
0.01300 
0.01300 
0.01200 
0.01200 
0.05500 
0.05500 
0.01150 
0.01150 
0.03100 
0.03100 
0.00250 
0.00250 
0.04950 
0.04950 
0.03550 
0.03550 
0.01650 
0.01650 
0.00100 
0.00100 
0.06000 
0.06000 
-0.00200 
-0.00200 
-0.01100 
-0.01100 
0.09750 
0.09750 
0.02200 
0.02200 
0.06550 
0.06550 
0.01000 
0.01000 
0.20050 
0.20050 
0.01200 
0.01200 
0.05400 
0.05400 
0.01800 
0.01800 
0.03750 
0.03750 
0.09500 
0.09500 
-0.00550 
-0.00550 
-0.01000 
-0.01000 
0.11400 
0.11400 
0.05550 
0.05550 
0.02250 
0.02250 
0.01300 
0.01300 
0.03500 
0.03500 
-0.01750 
-0.01750 
-0.03100 
-0.03100 
0.07350 
0.07350 
0.06350 
0.06350 