# vtk DataFile Version 2.1 
Trajects from timestep 86 with color option 
ASCII 
 
DATASET POLYDATA POINTS 1026 float 
1.542 9.337 -71.860 
1.423 9.553 -71.900 
-5.472 7.644 -71.432 
-5.415 7.766 -71.408 
-8.541 3.508 -72.373 
-8.407 3.576 -72.408 
10.554 3.562 -73.705 
10.591 3.709 -73.910 
2.120 4.879 -69.501 
2.109 5.220 -69.601 
-7.287 -1.377 -70.592 
-7.239 -1.251 -70.559 
2.214 6.496 -68.389 
2.157 6.652 -68.380 
-1.169 6.676 -68.860 
-1.096 6.836 -68.829 
-5.055 1.205 -70.040 
-5.020 1.494 -70.031 
-15.574 8.513 -74.596 
-15.564 8.611 -74.651 
5.233 2.413 -68.966 
5.224 2.633 -69.138 
7.744 3.523 -69.677 
7.750 3.760 -69.875 
1.181 -3.006 -72.062 
1.172 -2.802 -72.102 
5.550 0.473 -69.788 
5.605 0.769 -69.885 
4.079 -3.383 -69.167 
4.225 -3.138 -69.464 
1.111 4.156 -70.475 
1.143 4.347 -70.348 
4.775 6.158 -68.854 
4.802 6.424 -68.920 
2.201 -1.759 -73.817 
2.215 -1.553 -73.820 
-4.610 -7.316 -71.235 
-4.583 -7.052 -71.169 
0.032 6.040 -66.600 
0.076 6.294 -66.463 
-7.134 8.825 -66.979 
-6.899 9.053 -67.002 
2.565 8.411 -70.498 
2.671 8.687 -70.542 
-7.487 -5.029 -71.138 
-7.379 -4.712 -71.243 
-3.895 -0.864 -74.381 
-3.862 -0.716 -74.391 
0.766 2.415 -65.922 
0.869 2.746 -66.029 
3.319 9.073 -70.503 
3.352 9.356 -70.614 
-0.895 -5.993 -71.515 
-0.755 -5.830 -71.605 
0.717 9.001 -71.588 
0.517 9.140 -71.628 
-2.264 -1.203 -73.860 
-2.250 -0.947 -73.839 
10.657 5.950 -67.678 
10.717 6.056 -67.845 
14.160 3.268 -69.151 
14.273 3.304 -69.196 
-2.144 0.645 -71.425 
-1.977 0.866 -71.507 
-0.218 7.252 -63.599 
-0.013 7.652 -63.524 
-2.275 7.539 -66.363 
-2.268 7.729 -66.324 
4.031 11.724 -68.267 
3.947 11.922 -68.273 
-3.914 6.285 -69.401 
-3.712 6.461 -69.340 
3.625 0.595 -69.982 
3.620 0.836 -70.003 
-6.606 1.122 -65.047 
-6.483 1.417 -65.061 
-2.773 4.633 -68.294 
-2.693 4.788 -68.258 
6.758 3.003 -69.577 
6.726 3.280 -69.764 
7.231 11.141 -67.804 
7.168 11.204 -67.771 
9.780 -5.873 -72.863 
9.904 -5.844 -73.113 
-6.480 -9.939 -71.355 
-6.330 -9.706 -71.287 
-0.544 0.280 -69.833 
-0.548 0.488 -69.757 
4.788 -1.349 -66.578 
4.969 -1.108 -66.760 
-5.141 -6.088 -71.003 
-5.081 -5.803 -70.976 
7.598 -1.897 -68.437 
7.753 -1.682 -68.724 
-12.486 -5.984 -73.160 
-12.363 -5.792 -73.264 
6.659 -6.200 -68.584 
6.857 -6.107 -68.605 
6.851 7.570 -67.669 
6.846 7.688 -67.810 
-8.174 3.589 -66.742 
-8.047 3.812 -66.552 
-12.674 1.319 -70.861 
-12.665 1.472 -70.861 
-7.659 1.063 -66.408 
-7.537 1.298 -66.454 
5.516 -5.763 -65.019 
5.590 -5.427 -65.083 
-6.652 6.282 -67.127 
-6.526 6.513 -67.034 
-10.226 -6.107 -67.841 
-10.358 -5.770 -67.984 
-10.889 11.131 -70.996 
-10.741 11.255 -70.996 
-10.959 -6.280 -72.078 
-10.846 -5.986 -72.329 
-3.672 5.359 -73.477 
-3.545 5.450 -73.517 
5.765 10.997 -65.495 
5.846 11.224 -65.438 
2.052 -3.038 -72.020 
2.132 -2.784 -72.110 
-5.826 -5.788 -60.722 
-5.828 -5.587 -60.823 
5.931 -0.344 -73.078 
5.961 -0.130 -73.313 
-7.772 -5.297 -63.913 
-7.675 -4.992 -63.964 
-1.194 2.716 -69.225 
-1.071 2.963 -69.167 
8.822 -4.014 -69.923 
8.953 -3.889 -70.140 
2.583 -4.478 -66.026 
2.703 -4.351 -66.267 
6.680 -6.906 -64.856 
6.540 -6.766 -64.944 
-4.112 1.502 -67.748 
-4.001 1.817 -67.904 
2.265 10.564 -68.054 
2.331 10.815 -68.198 
-6.713 -5.942 -70.882 
-6.744 -5.730 -70.977 
10.159 -2.934 -67.520 
10.228 -2.871 -67.598 
3.167 6.613 -71.594 
3.089 6.855 -71.725 
8.852 9.207 -66.904 
8.905 9.372 -66.905 
-6.357 -1.233 -68.134 
-6.275 -1.001 -68.148 
-13.689 2.184 -70.330 
-13.583 2.393 -70.472 
-2.749 7.852 -65.876 
-2.726 8.106 -65.863 
-9.253 2.400 -63.276 
-9.339 2.586 -63.501 
-5.975 3.128 -65.867 
-5.933 3.392 -65.671 
-7.508 12.031 -71.785 
-7.456 12.209 -71.883 
1.475 -3.926 -65.144 
1.619 -3.767 -65.324 
-1.218 1.792 -75.296 
-1.133 1.886 -75.314 
-1.879 12.584 -66.637 
-1.886 12.953 -66.764 
-9.954 -1.897 -71.853 
-9.954 -1.692 -71.826 
0.138 12.074 -64.267 
0.261 12.283 -64.296 
3.647 3.825 -65.192 
3.880 4.082 -65.099 
-10.791 4.501 -67.551 
-10.613 4.709 -67.634 
4.108 10.906 -67.222 
4.116 11.094 -67.258 
-1.707 7.381 -62.240 
-1.616 7.713 -62.025 
15.462 -0.034 -72.262 
15.518 -0.053 -72.338 
1.153 -9.623 -68.211 
1.337 -9.431 -68.391 
-2.416 8.880 -67.315 
-2.329 9.127 -67.358 
-5.051 -8.165 -68.423 
-5.053 -7.877 -68.332 
-2.512 9.459 -73.885 
-2.579 9.552 -73.943 
-11.957 8.412 -70.458 
-11.777 8.494 -70.392 
11.603 0.106 -67.092 
11.734 0.247 -67.285 
-4.525 12.119 -61.597 
-4.389 12.388 -61.770 
-6.685 3.424 -71.049 
-6.584 3.530 -71.009 
-0.807 -5.832 -69.962 
-0.611 -5.535 -70.182 
-9.480 7.863 -68.929 
-9.303 7.879 -69.006 
-4.692 4.327 -62.157 
-4.716 4.484 -62.131 
-0.456 -10.019 -66.465 
-0.282 -9.813 -66.670 
2.915 9.207 -61.717 
2.921 9.512 -61.720 
8.048 12.117 -71.085 
7.919 12.074 -71.198 
6.083 6.156 -72.780 
6.118 6.346 -73.015 
6.607 3.281 -72.500 
6.684 3.660 -72.674 
-5.925 3.458 -61.403 
-5.970 3.644 -61.365 
2.962 7.311 -73.510 
3.073 7.608 -73.698 
11.403 -1.306 -67.888 
11.459 -1.214 -67.958 
12.452 7.222 -68.180 
12.500 7.269 -68.195 
-11.267 1.831 -65.089 
-11.335 2.080 -65.337 
-6.221 11.350 -64.015 
-6.275 11.538 -63.995 
2.005 3.843 -63.689 
2.098 4.129 -63.626 
-3.660 6.586 -66.262 
-3.574 6.778 -66.238 
4.792 -10.443 -71.125 
5.024 -10.420 -71.339 
-0.410 -2.227 -68.749 
-0.265 -1.968 -68.762 
-10.223 5.978 -68.576 
-9.911 6.065 -68.501 
-15.132 6.053 -70.413 
-15.085 6.090 -70.406 
3.694 -8.185 -65.240 
3.763 -7.959 -65.607 
-6.750 -12.141 -67.210 
-6.586 -11.995 -67.236 
-6.063 -0.036 -63.038 
-6.027 0.142 -63.111 
-5.657 8.690 -69.133 
-5.621 8.931 -69.168 
9.263 -10.710 -68.153 
9.387 -10.551 -68.001 
-1.052 -10.879 -71.776 
-1.001 -10.763 -71.856 
4.783 6.124 -64.507 
4.967 6.324 -64.767 
7.137 2.828 -65.388 
7.302 2.976 -65.481 
1.018 -4.651 -65.592 
1.185 -4.445 -65.745 
-8.186 -6.467 -70.700 
-8.047 -6.179 -70.798 
3.794 -10.879 -71.054 
4.017 -10.770 -71.248 
-11.051 -5.137 -69.853 
-10.946 -4.880 -70.048 
-13.575 -2.435 -66.115 
-13.570 -2.285 -66.212 
5.968 -1.142 -71.588 
6.131 -0.890 -71.803 
2.554 -4.743 -63.552 
2.638 -4.537 -63.813 
-1.137 -2.744 -67.835 
-0.975 -2.524 -67.878 
-2.426 -4.047 -61.160 
-2.339 -3.865 -61.230 
-11.321 -1.319 -66.501 
-11.236 -1.122 -66.614 
4.231 11.467 -73.379 
3.966 11.578 -73.586 
5.398 10.363 -75.934 
5.255 10.423 -76.081 
-9.683 -3.210 -67.368 
-9.511 -3.060 -67.525 
-2.922 -0.233 -65.680 
-2.835 0.011 -65.499 
-13.976 9.706 -72.563 
-13.926 9.815 -72.576 
-2.838 0.088 -66.736 
-2.644 0.264 -66.677 
-9.531 12.010 -64.006 
-9.431 12.160 -64.042 
0.082 10.437 -62.669 
0.150 10.665 -62.734 
7.269 -5.562 -64.704 
7.330 -5.404 -64.690 
-2.293 7.196 -69.814 
-2.160 7.356 -69.834 
-10.610 -9.898 -68.846 
-10.645 -9.703 -69.281 
11.226 -0.121 -73.794 
11.138 -0.017 -73.779 
6.777 2.560 -66.165 
6.926 2.721 -66.204 
5.125 7.217 -67.947 
5.243 7.427 -67.992 
-6.716 -8.439 -67.370 
-6.672 -8.237 -67.379 
-13.868 -10.501 -70.898 
-13.824 -10.264 -70.943 
-3.304 -3.232 -70.001 
-3.101 -2.939 -69.963 
-5.944 6.405 -73.010 
-5.831 6.414 -73.101 
-0.483 -7.688 -65.616 
-0.348 -7.532 -65.791 
-12.737 6.113 -66.520 
-12.649 6.428 -66.155 
8.130 -5.110 -63.378 
8.149 -4.867 -63.374 
-4.183 -7.985 -65.495 
-3.998 -7.807 -65.581 
-14.318 -7.592 -75.559 
-14.395 -7.364 -75.758 
2.627 6.662 -65.609 
2.715 7.013 -65.574 
-10.843 12.032 -65.420 
-10.773 12.109 -65.419 
5.538 5.249 -71.123 
5.617 5.460 -71.199 
-7.262 2.207 -65.504 
-7.142 2.554 -65.407 
-4.320 -11.637 -67.155 
-4.155 -11.490 -67.257 
-12.471 8.118 -66.331 
-12.391 8.186 -66.288 
-5.548 7.599 -65.820 
-5.309 7.877 -65.748 
-4.760 1.701 -63.262 
-4.720 1.793 -63.140 
9.717 8.577 -68.120 
9.792 8.662 -68.097 
-6.132 -10.518 -65.978 
-6.013 -10.387 -66.046 
-1.146 -5.851 -62.765 
-1.058 -5.708 -62.810 
7.874 -5.528 -68.894 
8.112 -5.408 -69.063 
-2.639 11.906 -71.243 
-2.729 12.085 -71.358 
10.042 10.122 -67.816 
9.957 10.204 -67.878 
-6.222 -4.167 -68.171 
-6.007 -4.057 -68.332 
0.172 -3.542 -64.043 
0.290 -3.306 -64.137 
-3.124 -2.779 -62.780 
-3.015 -2.655 -62.937 
7.221 -10.814 -73.752 
7.435 -10.770 -74.023 
11.443 -2.660 -65.381 
11.538 -2.560 -65.265 
-8.360 -11.213 -64.191 
-8.258 -11.079 -64.316 
6.787 9.656 -66.737 
6.849 9.845 -66.726 
-1.413 2.683 -67.061 
-1.315 2.957 -66.934 
-1.994 11.805 -66.353 
-1.989 12.122 -66.346 
15.280 5.382 -66.157 
15.499 5.508 -66.164 
-8.659 -4.490 -58.675 
-8.656 -4.269 -58.734 
1.266 6.622 -63.678 
1.473 6.924 -63.780 
-7.054 9.784 -75.726 
-7.080 9.830 -75.827 
7.415 -8.081 -66.512 
7.459 -8.069 -66.621 
3.275 3.018 -69.326 
3.339 3.403 -69.350 
-11.622 3.116 -64.753 
-11.574 3.201 -64.857 
-3.094 11.066 -75.899 
-3.239 11.150 -76.129 
-3.725 12.515 -71.681 
-3.825 12.698 -71.770 
12.242 7.719 -67.651 
12.230 7.799 -67.679 
-7.949 -1.371 -61.201 
-8.017 -1.247 -61.398 
16.007 7.768 -68.783 
16.045 7.882 -68.823 
-12.006 2.358 -65.591 
-12.048 2.669 -65.712 
-13.979 -11.725 -67.305 
-13.997 -11.577 -67.377 
8.943 8.732 -71.609 
8.946 8.853 -71.824 
-1.798 12.089 -68.155 
-1.749 12.369 -68.207 
-8.009 -3.182 -65.256 
-7.898 -2.993 -65.458 
14.325 -6.638 -73.050 
14.321 -6.606 -73.097 
-15.417 -5.451 -75.500 
-15.396 -5.300 -75.685 
-5.652 -0.783 -62.672 
-5.650 -0.654 -62.788 
6.805 -8.808 -67.566 
7.020 -8.560 -67.592 
-12.735 6.484 -69.352 
-12.647 6.550 -69.339 
10.290 -2.452 -71.380 
10.468 -2.364 -71.385 
7.366 7.716 -74.333 
7.267 7.796 -74.556 
11.509 2.812 -72.476 
11.714 2.947 -72.713 
2.223 -2.552 -64.194 
2.371 -2.351 -64.424 
10.333 -11.005 -66.304 
10.486 -10.880 -66.304 
7.882 10.167 -73.058 
7.736 10.218 -73.303 
-13.552 -10.095 -71.607 
-13.592 -9.859 -71.612 
-12.034 12.140 -73.392 
-11.880 12.179 -73.376 
16.794 -0.140 -67.118 
16.839 0.018 -67.115 
-2.857 -5.985 -70.598 
-2.562 -5.797 -70.799 
4.208 -1.293 -61.325 
4.317 -1.042 -61.443 
-8.716 -7.811 -76.074 
-8.630 -7.754 -76.130 
3.808 -3.959 -61.760 
4.055 -3.689 -61.946 
-0.884 1.323 -68.966 
-0.787 1.512 -68.875 
-4.370 -3.243 -72.656 
-4.182 -3.092 -72.739 
-4.745 8.820 -70.260 
-4.792 8.966 -70.385 
-2.030 -10.512 -71.586 
[...]
POINT_DATA 1026 
SCALARS Umean double 1 
LOOKUP_TABLE default
0.12492 
0.12492 
0.06839 
0.06839 
0.07714 
0.07714 
0.12748 
0.12748 
0.17777 
0.17777 
0.06941 
0.06941 
0.08317 
0.08317 
0.08929 
0.08929 
0.14563 
0.14563 
0.05641 
0.05641 
0.13970 
0.13970 
0.15444 
0.15444 
0.10404 
0.10404 
0.15815 
0.15815 
0.20588 
0.20588 
0.11580 
0.11580 
0.13770 
0.13770 
0.10325 
0.10325 
0.13673 
0.13673 
0.14596 
0.14596 
0.16412 
0.16412 
0.14946 
0.14946 
0.17548 
0.17548 
0.07598 
0.07598 
0.18140 
0.18140 
0.15289 
0.15289 
0.11648 
0.11648 
0.12341 
0.12341 
0.12862 
0.12862 
0.10335 
0.10335 
0.06342 
0.06342 
0.14444 
0.14444 
0.22784 
0.22784 
0.09704 
0.09704 
0.10758 
0.10758 
0.13739 
0.13739 
0.12098 
0.12098 
0.15996 
0.15996 
0.08905 
0.08905 
0.16787 
0.16787 
0.04751 
0.04751 
0.14028 
0.14028 
0.14266 
0.14266 
0.11074 
0.11074 
0.17604 
0.17604 
0.14625 
0.14625 
0.19533 
0.19533 
0.12531 
0.12531 
0.10988 
0.10988 
0.09196 
0.09196 
0.15965 
0.15965 
0.07663 
0.07663 
0.13437 
0.13437 
0.17498 
0.17498 
0.13954 
0.13954 
0.19458 
0.19458 
0.09654 
0.09654 
0.20137 
0.20137 
0.08064 
0.08064 
0.12383 
0.12383 
0.14055 
0.14055 
0.11248 
0.11248 
0.15963 
0.15963 
0.16205 
0.16205 
0.14098 
0.14098 
0.14131 
0.14131 
0.14884 
0.14884 
0.10833 
0.10833 
0.18431 
0.18431 
0.14840 
0.14840 
0.11719 
0.11719 
0.06086 
0.06086 
0.14301 
0.14301 
0.08665 
0.08665 
0.12323 
0.12323 
0.13700 
0.13700 
0.12769 
0.12769 
0.15217 
0.15217 
0.16574 
0.16574 
0.10487 
0.10487 
0.14002 
0.14002 
0.06400 
0.06400 
0.19515 
0.19515 
0.10339 
0.10339 
0.12212 
0.12212 
0.17957 
0.17957 
0.14304 
0.14304 
0.09579 
0.09579 
0.20293 
0.20293 
0.04815 
0.04815 
0.16056 
0.16056 
0.13269 
0.13269 
0.15102 
0.15102 
0.06423 
0.06423 
0.10426 
0.10426 
0.13628 
0.13628 
0.17377 
0.17377 
0.07589 
0.07589 
0.20918 
0.20918 
0.09684 
0.09684 
0.08047 
0.08047 
0.16936 
0.16936 
0.15254 
0.15254 
0.08840 
0.08840 
0.15211 
0.15211 
0.21204 
0.21204 
0.09755 
0.09755 
0.18431 
0.18431 
0.06423 
0.06423 
0.03442 
0.03442 
0.17898 
0.17898 
0.09831 
0.09831 
0.15363 
0.15363 
0.10587 
0.10587 
0.15823 
0.15823 
0.14856 
0.14856 
0.16624 
0.16624 
0.03011 
0.03011 
0.21825 
0.21825 
0.11055 
0.11055 
0.09786 
0.09786 
0.12309 
0.12309 
0.12625 
0.12625 
0.07493 
0.07493 
0.18805 
0.18805 
0.12019 
0.12019 
0.15308 
0.15308 
0.16723 
0.16723 
0.15752 
0.15752 
0.16963 
0.16963 
0.08935 
0.08935 
0.18459 
0.18459 
0.17147 
0.17147 
0.13829 
0.13829 
0.10676 
0.10676 
0.12125 
0.12125 
0.17706 
0.17706 
0.10684 
0.10684 
0.13850 
0.13850 
0.15801 
0.15801 
0.06031 
0.06031 
0.13425 
0.13425 
0.09192 
0.09192 
0.12332 
0.12332 
0.08497 
0.08497 
0.10451 
0.10451 
0.23900 
0.23900 
0.06853 
0.06853 
0.11140 
0.11140 
0.12252 
0.12252 
0.10347 
0.10347 
0.12261 
0.12261 
0.17924 
0.17924 
0.07268 
0.07268 
0.13526 
0.13526 
0.24505 
0.24505 
0.12189 
0.12189 
0.13537 
0.13537 
0.15614 
0.15614 
0.18178 
0.18178 
0.05203 
0.05203 
0.11889 
0.11889 
0.18988 
0.18988 
0.12169 
0.12169 
0.05673 
0.05673 
0.18681 
0.18681 
0.07897 
0.07897 
0.05783 
0.05783 
0.09480 
0.09480 
0.08692 
0.08692 
0.15780 
0.15780 
0.11551 
0.11551 
0.06670 
0.06670 
0.14513 
0.14513 
0.14005 
0.14005 
0.11391 
0.11391 
0.17405 
0.17405 
0.09011 
0.09011 
0.10486 
0.10486 
0.09961 
0.09961 
0.15875 
0.15875 
0.15856 
0.15856 
0.12638 
0.12638 
0.11438 
0.11438 
0.19004 
0.19004 
0.05699 
0.05699 
0.05908 
0.05908 
0.19551 
0.19551 
0.07132 
0.07132 
0.14229 
0.14229 
0.11337 
0.11337 
0.04280 
0.04280 
0.12125 
0.12125 
0.06332 
0.06332 
0.16817 
0.16817 
0.08278 
0.08278 
0.12336 
0.12336 
0.14449 
0.14449 
0.14904 
0.14904 
0.02850 
0.02850 
0.11986 
0.11986 
0.08675 
0.08675 
0.16462 
0.16462 
0.05538 
0.05538 
0.09931 
0.09931 
0.12838 
0.12838 
0.17060 
0.17060 
0.16971 
0.16971 
0.09879 
0.09879 
0.14486 
0.14486 
0.11971 
0.11971 
0.07983 
0.07983 
0.08216 
0.08216 
0.20172 
0.20172 
0.14900 
0.14900 
0.05870 
0.05870 
0.20525 
0.20525 
0.11555 
0.11555 
0.12751 
0.12751 
0.09893 
0.09893 
0.09303 
0.09303 
0.09932 
0.09932 
0.11374 
0.11374 
0.06005 
0.06005 
0.04502 
0.04502 
0.08907 
0.08907 
0.16574 
0.16574 
0.05895 
0.05895 
0.11591 
0.11591 
0.07821 
0.07821 
0.03827 
0.03827 
0.15857 
0.15857 
0.15713 
0.15713 
0.17398 
0.17398 
0.18063 
0.18063 
0.10830 
0.10830 
0.16322 
0.16322 
0.09742 
0.09742 
0.14341 
0.14341 
0.03797 
0.03797 
0.07440 
0.07440 
0.09553 
0.09553 
0.05387 
0.05387 
0.09830 
0.09830 
0.12984 
0.12984 
0.06770 
0.06770 
0.16887 
0.16887 
0.13101 
0.13101 
0.06702 
0.06702 
0.12023 
0.12023 
0.05305 
0.05305 
0.14825 
0.14825 
0.16490 
0.16490 
0.13235 
0.13235 
0.09159 
0.09159 
0.13187 
0.13187 
0.14482 
0.14482 
0.09278 
0.09278 
0.05774 
0.05774 
0.19386 
0.19386 
0.15692 
0.15692 
0.12642 
0.12642 
0.18771 
0.18771 
0.05127 
0.05127 
0.13426 
0.13426 
0.16514 
0.16514 
0.10882 
0.10882 
0.08336 
0.08336 
0.19002 
0.19002 
0.11512 
0.11512 
0.12998 
0.12998 
0.21696 
0.21696 
0.12575 
0.12575 
0.17293 
0.17293 
0.15576 
0.15576 
0.06796 
0.06796 
0.09129 
0.09129 
0.11240 
0.11240 
0.16389 
0.16389 
0.04757 
0.04757 
0.09250 
0.09250 
0.19379 
0.19379 
0.17557 
0.17557 
0.07988 
0.07988 
0.05384 
0.05384 
0.11320 
0.11320 
0.08900 
0.08900 
0.07216 
0.07216 
0.14305 
0.14305 
0.11408 
0.11408 
0.11778 
0.11778 
0.14789 
0.14789 
0.07204 
0.07204 
0.13858 
0.13858 
0.13391 
0.13391 
0.11624 
0.11624 
0.11056 
0.11056 
0.15138 
0.15138 
0.07397 
0.07397 
0.12297 
0.12297 
0.13748 
0.13748 
0.19432 
0.19432 
0.11033 
0.11033 
0.14604 
0.14604 
0.11454 
0.11454 
0.10550 
0.10550 
0.05752 
0.05752 
0.22680 
0.22680 
0.09992 
0.09992 
0.11389 
0.11389 
0.05220 
0.05220 
0.09775 
0.09775 
0.15071 
0.15071 
0.22675 
0.22675 
0.12817 
0.12817 
0.15836 
0.15836 
0.14497 
0.14497 
0.11945 
0.11945 
0.06534 
0.06534 
0.09286 
0.09286 
0.11956 
0.11956 
0.11761 
0.11761 
0.11309 
0.11309 
0.07147 
0.07147 
0.16837 
0.16837 
0.07877 
0.07877 
0.13416 
0.13416 
0.19962 
0.19962 
0.08705 
0.08705 
0.09618 
0.09618 
0.10437 
0.10437 
0.15572 
0.15572 
0.12974 
0.12974 
0.10907 
0.10907 
0.05927 
0.05927 
0.12717 
0.12717 
0.05487 
0.05487 
0.19506 
0.19506 
0.15622 
0.15622 
0.08008 
0.08008 
0.13723 
0.13723 
0.14412 
0.14412 
0.14206 
0.14206 
0.19940 
0.19940 
0.12897 
0.12897 
0.10381 
0.10381 
0.09518 
0.09518 
0.13755 
0.13755 
0.17240 
0.17240 
0.12323 
0.12323 
0.09609 
0.09609 
0.13011 
0.13011 
0.09791 
0.09791 
0.15162 
0.15162 
0.04899 
0.04899 
0.10412 
0.10412 
0.10475 
0.10475 
0.09585 
0.09585 
0.15723 
0.15723 
0.15213 
0.15213 
0.10683 
0.10683 
0.09348 
0.09348 
0.22941 
0.22941 
0.21943 
0.21943 
0.14862 
0.14862 
0.16745 
0.16745 
0.13834 
0.13834 
0.13733 
0.13733 
0.08807 
0.08807 
0.07818 
0.07818 
0.19882 
0.19882 
0.17448 
0.17448 
0.18381 
0.18381 
0.11599 
0.11599 
0.11957 
0.11957 
0.19793 
0.19793 
0.20283 
0.20283 
0.18326 
0.18326 
0.16312 
0.16312 
0.04673 
0.04673 
0.05141 
0.05141 
0.07441 
0.07441 
0.18684 
0.18684 
0.13173 
0.13173 
0.17200 
0.17200 
0.16733 
0.16733 
0.15885 
0.15885 
0.18305 
0.18305 
0.12385 
0.12385 
0.12899 
0.12899 
0.13811 
0.13811 
0.17674 
0.17674 
0.11877 
0.11877 
0.15537 
0.15537 
0.08824 
0.08824 
0.11342 
0.11342 
0.19427 
0.19427 
0.10535 
0.10535 
0.16551 
0.16551 
0.09258 
0.09258 
0.11914 
0.11914 
0.05622 
0.05622 
0.11362 
0.11362 
0.06071 
0.06071 
0.07994 
0.07994 
0.15247 
0.15247 
0.09265 
0.09265 
0.14336 
0.14336 
0.12950 
0.12950 
0.20787 
0.20787 
0.12598 
0.12598 
0.16362 
0.16362 
0.14937 
0.14937 
0.15492 
0.15492 
0.16334 
0.16334 
0.17929 
0.17929 
0.12011 
0.12011 
0.13441 
0.13441 
0.09861 
0.09861 
0.19194 
0.19194 
0.13597 
0.13597 
0.04214 
0.04214 
0.16668 
0.16668 
0.09917 
0.09917 
0.16520 
0.16520 
0.13346 
0.13346 
0.15946 
0.15946 
0.16996 
0.16996 
0.07146 
0.07146 
0.14561 
0.14561 
0.13406 
0.13406 
0.18770 
0.18770 
0.02594 
0.02594 
0.10091 
0.10091 
0.11249 
0.11249 
0.14959 
0.14959 
0.09752 
0.09752 
0.15353 
0.15353 
0.16133 
0.16133 
0.15728 
0.15728 
0.15342 
0.15342 
0.14880 
0.14880 
0.10053 
0.10053 
0.12156 
0.12156 
0.12664 
0.12664 
0.11601 
0.11601 
0.18717 
0.18717 
0.05096 
0.05096 
0.12568 
0.12568 
0.21345 
0.21345 
0.15037 
0.15037 
0.08934 
0.08934 
0.19399 
0.19399 
0.07081 
0.07081 
0.07221 
0.07221 
0.06640 
0.06640 
0.12507 
0.12507 
0.16887 
0.16887 
0.15469 
0.15469 
0.07791 
0.07791 
0.04022 
0.04022 
0.13822 
0.13822 
0.04788 
0.04788 
0.03700 
0.03700 
0.11925 
0.11925 
0.12178 
0.12178 
0.07017 
0.07017 
0.07212 
0.07212 
0.17189 
0.17189 
0.09786 
0.09786 
0.10328 
0.10328 
0.11002 
0.11002 
0.18187 
0.18187 
0.03346 
0.03346 
0.05944 
0.05944 
0.07797 
0.07797 
0.04660 
0.04660 
0.10598 
0.10598 
0.05629 
0.05629 
0.14387 
0.14387 
0.10184 
0.10184 
0.06104 
0.06104 
0.06505 
0.06505 
0.04156 
0.04156 
0.12869 
0.12869 
0.10069 
0.10069 
0.08624 
0.08624 
0.04888 
0.04888 
0.18741 
0.18741 
0.06109 
0.06109 
0.16633 
0.16633 
0.08367 
0.08367 
0.13666 
0.13666 
0.07162 
0.07162 
0.05163 
0.05163 
0.15435 
0.15435 
0.07507 
0.07507 
0.11538 
0.11538 
0.16377 
0.16377 
0.08624 
0.08624 
0.11801 
0.11801 
0.06456 
0.06456 
0.14886 
0.14886 
0.10918 
0.10918 
0.10062 
0.10062 
0.13186 
0.13186 
0.07915 
0.07915 
0.18593 
0.18593 
0.09097 
0.09097 
0.13854 
0.13854 
0.15155 
0.15155 
0.07844 
0.07844 
0.11811 
0.11811 
SCALARS Umean_X double 1 
LOOKUP_TABLE default
-0.05950 
-0.05950 
0.02850 
0.02850 
0.06700 
0.06700 
0.01850 
0.01850 
-0.00550 
-0.00550 
0.02400 
0.02400 
-0.02850 
-0.02850 
0.03650 
0.03650 
0.01750 
0.01750 
0.00500 
0.00500 
-0.00450 
-0.00450 
0.00300 
0.00300 
-0.00450 
-0.00450 
0.02750 
0.02750 
0.07300 
0.07300 
0.01600 
0.01600 
0.01350 
0.01350 
0.00700 
0.00700 
0.01350 
0.01350 
0.02200 
0.02200 
0.11750 
0.11750 
0.05300 
0.05300 
0.05400 
0.05400 
0.01650 
0.01650 
0.05150 
0.05150 
0.01650 
0.01650 
0.07000 
0.07000 
-0.10000 
-0.10000 
0.00700 
0.00700 
0.03000 
0.03000 
0.05650 
0.05650 
0.08350 
0.08350 
0.10250 
0.10250 
0.00350 
0.00350 
-0.04200 
-0.04200 
0.10100 
0.10100 
-0.00250 
-0.00250 
0.06150 
0.06150 
0.04000 
0.04000 
-0.01600 
-0.01600 
-0.03150 
-0.03150 
0.06200 
0.06200 
0.07500 
0.07500 
-0.00200 
-0.00200 
0.09050 
0.09050 
0.03000 
0.03000 
0.07750 
0.07750 
0.06150 
0.06150 
0.09900 
0.09900 
-0.00250 
-0.00250 
0.06350 
0.06350 
0.00450 
0.00450 
0.06100 
0.06100 
0.03700 
0.03700 
0.06300 
0.06300 
-0.06600 
-0.06600 
0.07400 
0.07400 
0.05650 
0.05650 
0.06350 
0.06350 
0.04050 
0.04050 
0.04000 
0.04000 
-0.00100 
-0.00100 
0.01500 
0.01500 
0.04850 
0.04850 
0.06150 
0.06150 
0.06550 
0.06550 
0.06000 
0.06000 
-0.07000 
-0.07000 
0.05550 
0.05550 
0.03300 
0.03300 
-0.01550 
-0.01550 
0.03450 
0.03450 
-0.03900 
-0.03900 
0.02650 
0.02650 
0.04100 
0.04100 
0.05300 
0.05300 
0.01150 
0.01150 
-0.04300 
-0.04300 
0.02100 
0.02100 
0.02600 
0.02600 
0.07200 
0.07200 
0.04250 
0.04250 
-0.00350 
-0.00350 
-0.00000 
-0.00000 
0.06150 
0.06150 
0.11650 
0.11650 
0.08900 
0.08900 
0.00400 
0.00400 
0.04550 
0.04550 
0.02800 
0.02800 
0.09200 
0.09200 
0.04350 
0.04350 
-0.00100 
-0.00100 
-0.03350 
-0.03350 
0.09000 
0.09000 
0.06550 
0.06550 
0.06800 
0.06800 
0.05050 
0.05050 
0.09800 
0.09800 
0.08850 
0.08850 
-0.01200 
-0.01200 
0.08700 
0.08700 
0.00300 
0.00300 
-0.06450 
-0.06450 
0.01750 
0.01750 
0.03850 
0.03850 
-0.02250 
-0.02250 
0.05550 
0.05550 
0.02800 
0.02800 
0.02400 
0.02400 
-0.03400 
-0.03400 
-0.02700 
-0.02700 
0.04650 
0.04650 
0.04300 
0.04300 
0.11600 
0.11600 
0.07250 
0.07250 
0.15600 
0.15600 
0.02350 
0.02350 
0.03450 
0.03450 
0.08200 
0.08200 
0.01800 
0.01800 
0.01800 
0.01800 
0.06200 
0.06200 
0.02550 
0.02550 
0.09200 
0.09200 
0.08250 
0.08250 
0.08350 
0.08350 
0.06950 
0.06950 
0.11150 
0.11150 
0.05250 
0.05250 
0.00250 
0.00250 
0.08150 
0.08150 
0.04200 
0.04200 
0.08100 
0.08100 
0.04350 
0.04350 
0.04250 
0.04250 
-0.13250 
-0.13250 
-0.07150 
-0.07150 
0.08600 
0.08600 
0.04350 
0.04350 
0.02500 
0.02500 
0.09700 
0.09700 
0.05000 
0.05000 
0.03400 
0.03400 
0.03050 
0.03050 
0.06650 
0.06650 
-0.01750 
-0.01750 
-0.04400 
-0.04400 
0.07450 
0.07450 
0.05900 
0.05900 
0.02200 
0.02200 
0.02200 
0.02200 
0.10150 
0.10150 
0.05650 
0.05650 
0.06750 
0.06750 
0.04400 
0.04400 
0.00950 
0.00950 
0.09250 
0.09250 
-0.03850 
-0.03850 
0.04400 
0.04400 
0.03500 
0.03500 
0.03950 
0.03950 
0.06000 
0.06000 
0.08250 
0.08250 
0.04000 
0.04000 
0.11950 
0.11950 
0.02000 
0.02000 
0.03750 
0.03750 
0.05950 
0.05950 
0.04400 
0.04400 
0.11900 
0.11900 
-0.04500 
-0.04500 
-0.04250 
-0.04250 
0.10750 
0.10750 
0.05900 
0.05900 
0.05450 
0.05450 
0.10700 
0.10700 
0.04750 
0.04750 
0.05100 
0.05100 
0.03100 
0.03100 
0.04900 
0.04900 
0.00250 
0.00250 
0.10950 
0.10950 
0.00150 
0.00150 
0.10350 
0.10350 
-0.01300 
-0.01300 
0.02200 
0.02200 
0.03200 
0.03200 
0.02400 
0.02400 
-0.07250 
-0.07250 
-0.05000 
-0.05000 
-0.00600 
-0.00600 
-0.03400 
-0.03400 
0.01900 
0.01900 
-0.02100 
-0.02100 
-0.00900 
-0.00900 
0.00150 
0.00150 
0.02450 
0.02450 
0.05550 
0.05550 
-0.00200 
-0.00200 
0.01050 
0.01050 
0.00100 
0.00100 
0.10750 
0.10750 
0.04400 
0.04400 
0.08900 
0.08900 
-0.04950 
-0.04950 
0.10250 
0.10250 
0.07400 
0.07400 
0.07650 
0.07650 
-0.07300 
-0.07300 
-0.02000 
-0.02000 
0.07700 
0.07700 
0.02250 
0.02250 
0.14750 
0.14750 
0.05450 
0.05450 
0.04300 
0.04300 
0.12350 
0.12350 
0.04850 
0.04850 
0.09400 
0.09400 
-0.02350 
-0.02350 
-0.02400 
-0.02400 
0.05300 
0.05300 
-0.03800 
-0.03800 
0.03850 
0.03850 
-0.00950 
-0.00950 
0.02700 
0.02700 
0.13600 
0.13600 
0.05500 
0.05500 
0.02950 
0.02950 
-0.03000 
-0.03000 
0.03350 
0.03350 
0.09050 
0.09050 
0.08750 
0.08750 
0.08750 
0.08750 
0.08500 
0.08500 
-0.07150 
-0.07150 
0.00350 
0.00350 
-0.02150 
-0.02150 
0.02150 
0.02150 
0.02900 
0.02900 
0.00300 
0.00300 
0.01850 
0.01850 
0.04750 
0.04750 
0.05250 
0.05250 
0.04350 
0.04350 
0.01850 
0.01850 
0.00350 
0.00350 
0.10350 
0.10350 
0.04700 
0.04700 
0.08400 
0.08400 
0.04150 
0.04150 
0.01550 
0.01550 
0.10600 
0.10600 
-0.13000 
-0.13000 
0.05900 
0.05900 
0.00250 
0.00250 
0.08850 
0.08850 
-0.00350 
-0.00350 
0.02450 
0.02450 
0.03150 
0.03150 
0.13850 
0.13850 
0.05850 
0.05850 
0.08700 
0.08700 
0.02800 
0.02800 
0.04550 
0.04550 
0.00950 
0.00950 
0.09650 
0.09650 
-0.03850 
-0.03850 
0.13950 
0.13950 
0.04300 
0.04300 
0.06600 
0.06600 
0.03350 
0.03350 
0.05300 
0.05300 
0.08600 
0.08600 
0.08150 
0.08150 
-0.01650 
-0.01650 
0.05000 
0.05000 
0.08450 
0.08450 
0.08500 
0.08500 
0.02500 
0.02500 
0.04550 
0.04550 
0.07700 
0.07700 
0.05900 
0.05900 
0.07500 
0.07500 
0.01600 
0.01600 
0.08700 
0.08700 
0.06050 
0.06050 
0.04150 
0.04150 
0.01300 
0.01300 
0.04300 
0.04300 
0.01800 
0.01800 
-0.06100 
-0.06100 
0.04300 
0.04300 
0.03750 
0.03750 
0.05200 
0.05200 
0.07000 
0.07000 
0.01250 
0.01250 
0.03400 
0.03400 
0.01050 
0.01050 
0.09700 
0.09700 
0.02550 
0.02550 
0.10050 
0.10050 
0.02750 
0.02750 
0.03850 
0.03850 
0.03300 
0.03300 
0.04200 
0.04200 
-0.03100 
-0.03100 
0.09650 
0.09650 
-0.03450 
-0.03450 
0.01400 
0.01400 
-0.01850 
-0.01850 
0.08400 
0.08400 
0.02550 
0.02550 
0.00550 
0.00550 
-0.02400 
-0.02400 
-0.01500 
-0.01500 
0.00400 
0.00400 
0.05350 
0.05350 
-0.02500 
-0.02500 
-0.03700 
-0.03700 
-0.06750 
-0.06750 
0.07800 
0.07800 
0.06900 
0.06900 
0.03600 
0.03600 
0.03350 
0.03350 
0.03200 
0.03200 
0.06150 
0.06150 
0.07850 
0.07850 
0.05150 
0.05150 
-0.02150 
-0.02150 
-0.00500 
-0.00500 
0.04550 
0.04550 
-0.03250 
-0.03250 
0.07000 
0.07000 
0.03600 
0.03600 
0.04400 
0.04400 
-0.00700 
-0.00700 
0.03350 
0.03350 
0.07900 
0.07900 
0.06350 
0.06350 
0.06300 
0.06300 
0.05800 
0.05800 
0.08000 
0.08000 
0.05200 
0.05200 
0.04850 
0.04850 
0.10000 
0.10000 
-0.01400 
-0.01400 
0.09600 
0.09600 
-0.03100 
-0.03100 
0.03500 
0.03500 
0.01750 
0.01750 
0.00600 
0.00600 
-0.01900 
-0.01900 
0.07950 
0.07950 
0.01050 
0.01050 
0.03100 
0.03100 
0.01200 
0.01200 
0.01850 
0.01850 
0.08900 
0.08900 
0.09500 
0.09500 
0.03100 
0.03100 
-0.04350 
-0.04350 
0.16250 
0.16250 
0.11650 
0.11650 
0.07400 
0.07400 
0.03650 
0.03650 
0.04100 
0.04100 
0.01600 
0.01600 
0.05750 
0.05750 
0.06250 
0.06250 
0.09850 
0.09850 
0.10050 
0.10050 
0.09850 
0.09850 
-0.00750 
-0.00750 
0.02000 
0.02000 
0.11600 
0.11600 
0.08800 
0.08800 
0.11200 
0.11200 
0.02150 
0.02150 
0.00700 
0.00700 
0.01200 
0.01200 
0.06100 
0.06100 
0.11000 
0.11000 
0.07400 
0.07400 
0.15400 
0.15400 
0.02700 
0.02700 
0.07400 
0.07400 
0.05700 
0.05700 
0.04900 
0.04900 
0.07250 
0.07250 
0.04900 
0.04900 
0.02750 
0.02750 
0.08200 
0.08200 
-0.00250 
-0.00250 
-0.04400 
-0.04400 
0.02200 
0.02200 
0.07100 
0.07100 
0.03400 
0.03400 
0.08400 
0.08400 
0.09000 
0.09000 
0.09500 
0.09500 
0.02900 
0.02900 
0.07400 
0.07400 
-0.00700 
-0.00700 
0.07800 
0.07800 
0.01550 
0.01550 
0.09000 
0.09000 
0.04900 
0.04900 
0.05700 
0.05700 
0.09400 
0.09400 
0.05150 
0.05150 
-0.08800 
-0.08800 
0.05700 
0.05700 
0.00400 
0.00400 
0.05700 
0.05700 
0.04850 
0.04850 
-0.02750 
-0.02750 
0.07850 
0.07850 
0.06900 
0.06900 
0.04450 
0.04450 
-0.00700 
-0.00700 
-0.00500 
-0.00500 
0.12350 
0.12350 
-0.07250 
-0.07250 
0.09100 
0.09100 
0.01100 
0.01100 
-0.04550 
-0.04550 
0.06500 
0.06500 
-0.05450 
-0.05450 
0.03600 
0.03600 
0.03500 
0.03500 
0.07150 
0.07150 
0.00900 
0.00900 
0.04600 
0.04600 
0.02000 
0.02000 
0.10400 
0.10400 
0.05600 
0.05600 
0.02100 
0.02100 
0.05100 
0.05100 
0.06750 
0.06750 
0.11250 
0.11250 
-0.00650 
-0.00650 
0.01400 
0.01400 
0.07550 
0.07550 
0.09700 
0.09700 
-0.03100 
-0.03100 
0.13200 
0.13200 
0.02600 
0.02600 
0.05350 
0.05350 
0.04500 
0.04500 
-0.02900 
-0.02900 
0.02750 
0.02750 
0.12350 
0.12350 
0.01550 
0.01550 
-0.02200 
-0.02200 
-0.06050 
-0.06050 
0.02950 
0.02950 
0.08100 
0.08100 
0.05500 
0.05500 
0.00900 
0.00900 
0.03250 
0.03250 
0.09500 
0.09500 
0.03600 
0.03600 
-0.03700 
-0.03700 
0.04800 
0.04800 
0.08500 
0.08500 
0.01550 
0.01550 
0.01800 
0.01800 
0.08400 
0.08400 
0.05700 
0.05700 
-0.07500 
-0.07500 
0.02900 
0.02900 
0.10300 
0.10300 
0.00450 
0.00450 
0.04800 
0.04800 
0.06200 
0.06200 
-0.00150 
-0.00150 
0.05650 
0.05650 
0.05600 
0.05600 
0.09150 
0.09150 
0.08500 
0.08500 
0.03350 
0.03350 
0.05400 
0.05400 
0.01100 
0.01100 
0.02350 
0.02350 
0.04700 
0.04700 
0.02450 
0.02450 
0.02500 
0.02500 
0.11500 
0.11500 
-0.00150 
-0.00150 
0.14700 
0.14700 
0.04300 
0.04300 
0.02800 
0.02800 
-0.01250 
-0.01250 
-0.00400 
-0.00400 
-0.04000 
-0.04000 
0.01750 
0.01750 
0.01250 
0.01250 
0.08150 
0.08150 
-0.03550 
-0.03550 
0.03000 
0.03000 
-0.03350 
-0.03350 
-0.09750 
-0.09750 
-0.08100 
-0.08100 
-0.01350 
-0.01350 
0.06950 
0.06950 
0.02300 
0.02300 
0.13600 
0.13600 
0.00500 
0.00500 
0.09200 
0.09200 
0.10150 
0.10150 
-0.06550 
-0.06550 
0.03350 
0.03350 
SCALARS Umean_Y double 1 
LOOKUP_TABLE default
0.10800 
0.10800 
0.06100 
0.06100 
0.03400 
0.03400 
0.07350 
0.07350 
0.17050 
0.17050 
0.06300 
0.06300 
0.07800 
0.07800 
0.08000 
0.08000 
0.14450 
0.14450 
0.04900 
0.04900 
0.11000 
0.11000 
0.11850 
0.11850 
0.10200 
0.10200 
0.14800 
0.14800 
0.12250 
0.12250 
0.09550 
0.09550 
0.13300 
0.13300 
0.10300 
0.10300 
0.13200 
0.13200 
0.12700 
0.12700 
0.11400 
0.11400 
0.13800 
0.13800 
0.15850 
0.15850 
0.07400 
0.07400 
0.16550 
0.16550 
0.14150 
0.14150 
0.08150 
0.08150 
0.06950 
0.06950 
0.12800 
0.12800 
0.05300 
0.05300 
0.01800 
0.01800 
0.11050 
0.11050 
0.20000 
0.20000 
0.09500 
0.09500 
0.09900 
0.09900 
0.08800 
0.08800 
0.12050 
0.12050 
0.14750 
0.14750 
0.07750 
0.07750 
0.13850 
0.13850 
0.03150 
0.03150 
0.01450 
0.01450 
0.11650 
0.11650 
0.10400 
0.10400 
0.12050 
0.12050 
0.14250 
0.14250 
0.10750 
0.10750 
0.09600 
0.09600 
0.04650 
0.04650 
0.05900 
0.05900 
0.11150 
0.11150 
0.07650 
0.07650 
0.11750 
0.11750 
0.16800 
0.16800 
0.11550 
0.11550 
0.16850 
0.16850 
0.06200 
0.06200 
0.14700 
0.14700 
0.04550 
0.04550 
0.11350 
0.11350 
0.12700 
0.12700 
0.10050 
0.10050 
0.10700 
0.10700 
0.15250 
0.15250 
0.12350 
0.12350 