# vtk DataFile Version 2.1 
Trajects from timestep 64 with color option 
ASCII 
 
DATASET POLYDATA POINTS 1036 float 
1.405 -0.209 -70.598 
1.338 0.119 -70.646 
5.934 4.029 -70.850 
5.973 4.089 -70.950 
-3.024 -0.783 -74.982 
-2.959 -0.681 -74.957 
6.762 -2.796 -72.482 
6.707 -2.650 -72.507 
9.269 7.403 -69.028 
9.239 7.544 -69.177 
5.880 6.548 -69.514 
5.891 6.685 -69.603 
-2.066 0.425 -74.234 
-1.980 0.558 -74.287 
-8.100 2.165 -71.842 
-8.081 2.167 -71.821 
-3.723 -10.725 -72.475 
-3.741 -10.348 -72.347 
-9.687 2.229 -72.948 
-9.619 2.283 -73.010 
-0.743 0.870 -65.822 
-0.628 1.225 -65.903 
2.516 -4.386 -72.683 
2.433 -4.174 -72.775 
12.267 -0.427 -72.505 
12.252 -0.375 -72.581 
-0.184 7.554 -71.751 
-0.253 7.723 -71.916 
-0.916 6.815 -71.679 
-0.967 6.960 -71.802 
-2.547 -5.041 -69.309 
-2.548 -4.797 -69.247 
3.163 0.452 -68.489 
3.230 0.741 -68.633 
-6.556 10.028 -74.567 
-6.646 10.142 -74.826 
-0.160 2.372 -72.889 
-0.035 2.552 -72.984 
4.700 0.898 -68.897 
4.834 1.230 -69.080 
1.658 1.105 -70.863 
1.683 1.349 -70.843 
7.154 -1.456 -68.567 
7.284 -1.248 -68.695 
-3.089 -4.625 -73.482 
-3.072 -4.525 -73.467 
-1.617 8.121 -69.760 
-1.666 8.340 -69.914 
8.237 7.767 -71.540 
8.164 7.915 -71.718 
9.767 -5.879 -73.228 
9.682 -5.742 -73.217 
2.937 -6.071 -73.386 
2.962 -5.883 -73.460 
13.679 -1.133 -70.413 
13.771 -1.029 -70.522 
8.293 6.486 -68.423 
8.341 6.596 -68.501 
-5.038 -4.369 -68.474 
-5.045 -4.154 -68.621 
8.108 -4.893 -66.547 
8.285 -4.794 -66.582 
-11.426 2.713 -71.586 
-11.290 2.752 -71.653 
1.499 5.885 -67.465 
1.606 6.234 -67.467 
6.656 -2.300 -67.503 
6.832 -2.079 -67.725 
3.138 5.972 -72.280 
3.050 6.110 -72.467 
-6.753 5.811 -71.092 
-6.669 5.839 -71.163 
1.894 10.322 -70.019 
1.833 10.415 -70.012 
-7.654 -3.706 -68.586 
-7.564 -3.442 -68.544 
-5.336 3.974 -69.368 
-5.190 4.081 -69.340 
-6.778 10.391 -66.005 
-6.827 10.605 -66.150 
-5.376 -4.434 -71.598 
-5.262 -4.141 -71.611 
-2.614 1.474 -66.089 
-2.597 1.823 -66.107 
-2.937 2.570 -70.443 
-2.803 2.767 -70.365 
-2.923 11.311 -73.973 
-3.093 11.328 -74.079 
-3.147 10.010 -71.300 
-3.215 10.161 -71.367 
-3.447 -0.472 -66.851 
-3.387 -0.185 -66.804 
2.835 8.090 -66.293 
2.863 8.339 -66.368 
4.417 -4.072 -68.979 
4.566 -3.776 -69.180 
-2.153 7.292 -62.672 
-2.097 7.516 -62.707 
-8.571 0.563 -61.989 
-8.517 0.885 -61.825 
-12.673 0.122 -71.416 
-12.550 0.240 -71.478 
-14.099 -3.297 -68.195 
-14.088 -3.001 -68.216 
-3.051 -2.336 -69.519 
-2.974 -2.131 -69.400 
-15.044 6.243 -74.102 
-15.107 6.317 -74.145 
3.432 -0.274 -66.998 
3.524 0.027 -67.123 
-8.796 6.075 -64.619 
-8.771 6.250 -64.565 
-5.002 2.267 -69.089 
-4.871 2.347 -69.098 
6.050 12.569 -66.855 
5.991 12.703 -66.919 
3.617 7.519 -64.977 
3.751 7.922 -65.176 
-6.394 10.244 -63.582 
-6.435 10.545 -63.667 
-7.620 -5.760 -67.241 
-7.545 -5.525 -67.256 
3.857 -2.750 -63.461 
3.977 -2.493 -63.711 
3.638 6.438 -67.691 
3.753 6.705 -67.725 
6.541 -3.503 -64.366 
6.572 -3.235 -64.589 
-6.888 12.561 -67.173 
-6.939 12.762 -67.253 
-5.747 -3.659 -67.484 
-5.692 -3.455 -67.495 
-9.585 12.223 -65.675 
-9.510 12.374 -65.779 
10.332 1.982 -68.786 
10.594 2.193 -68.691 
-6.322 -12.016 -72.891 
-6.286 -11.776 -72.823 
-6.117 4.360 -68.167 
-6.091 4.556 -68.176 
3.847 -5.889 -68.630 
3.974 -5.636 -68.861 
2.594 8.138 -75.762 
2.528 8.159 -75.868 
6.436 -1.683 -64.669 
6.552 -1.444 -64.989 
-9.383 0.346 -77.370 
-9.288 0.325 -77.407 
-4.206 -3.128 -69.588 
-4.132 -3.007 -69.590 
0.909 -8.461 -75.792 
1.021 -8.359 -75.740 
-8.479 -7.127 -68.508 
-8.423 -6.904 -68.471 
-7.163 3.826 -61.953 
-7.151 4.003 -61.944 
-14.711 -11.582 -72.485 
-14.748 -11.332 -72.546 
-3.115 7.240 -68.035 
-3.060 7.365 -68.050 
14.882 9.173 -71.793 
14.860 9.247 -71.888 
-11.763 -2.223 -73.866 
-11.744 -2.143 -73.815 
-5.495 0.734 -65.809 
-5.463 0.897 -65.608 
7.485 -7.065 -66.030 
7.588 -6.838 -66.120 
-1.611 -1.767 -67.853 
-1.452 -1.572 -67.726 
6.896 -9.520 -63.795 
6.881 -9.360 -63.894 
-5.243 -3.091 -69.052 
-5.203 -2.898 -69.086 
-5.867 -1.434 -63.719 
-5.791 -1.218 -63.583 
-5.109 8.590 -73.381 
-5.215 8.689 -73.503 
-8.699 8.661 -69.073 
-8.622 8.807 -69.198 
-13.091 0.861 -69.018 
-12.903 1.073 -69.065 
7.405 12.836 -65.980 
7.405 12.953 -66.014 
-3.069 3.587 -73.433 
-2.989 3.796 -73.495 
15.704 5.136 -71.665 
15.689 5.280 -71.839 
-15.615 -7.559 -72.558 
-15.577 -7.452 -72.658 
-11.131 7.741 -63.000 
-11.112 8.018 -63.014 
-10.911 10.699 -66.793 
-10.821 10.781 -66.898 
8.009 11.612 -71.955 
7.939 11.662 -72.127 
0.025 -8.905 -75.647 
0.116 -8.743 -75.699 
1.483 -4.191 -73.305 
1.458 -4.064 -73.357 
-5.652 -0.123 -63.867 
-5.574 0.123 -63.711 
-4.455 -11.707 -69.561 
-4.438 -11.551 -69.503 
-15.211 -4.836 -71.521 
-15.212 -4.763 -71.562 
3.305 -4.410 -66.765 
3.323 -4.220 -66.968 
-8.425 -2.577 -68.100 
-8.328 -2.363 -67.946 
13.012 11.711 -67.563 
12.896 11.932 -67.776 
-13.155 -6.493 -75.773 
-13.310 -6.473 -75.911 
-10.418 0.934 -65.333 
-10.317 1.236 -65.459 
6.792 1.342 -69.229 
6.982 1.564 -69.364 
10.802 1.939 -64.349 
10.998 2.099 -64.324 
1.919 -0.769 -71.083 
1.889 -0.441 -71.110 
-7.254 -3.146 -65.478 
-7.224 -2.853 -65.405 
10.124 10.912 -71.287 
9.927 10.902 -71.425 
13.661 -7.563 -68.103 
13.631 -7.478 -68.064 
-1.921 -4.024 -63.109 
-1.800 -3.694 -63.277 
-8.171 8.397 -74.234 
-8.196 8.470 -74.233 
8.843 1.135 -63.476 
8.982 1.450 -63.602 
7.187 9.641 -70.106 
7.001 9.788 -70.299 
7.017 7.057 -73.975 
6.893 7.056 -74.087 
-7.403 -7.890 -69.348 
-7.244 -7.700 -69.460 
2.906 8.756 -65.702 
2.931 9.083 -65.729 
6.386 -12.451 -67.018 
6.627 -12.394 -66.893 
-0.555 10.934 -64.456 
-0.502 11.223 -64.300 
-6.480 6.385 -63.470 
-6.424 6.643 -63.498 
-1.267 5.922 -67.743 
-1.286 6.159 -67.859 
-4.366 1.530 -65.661 
-4.306 1.778 -65.572 
-1.646 9.706 -65.554 
-1.652 9.958 -65.653 
-3.559 6.158 -76.833 
-3.689 6.199 -77.029 
-10.847 9.116 -64.661 
-10.910 9.269 -64.754 
3.796 -8.456 -74.891 
3.867 -8.341 -74.938 
-9.121 -11.709 -69.007 
-8.968 -11.444 -69.179 
17.764 2.072 -70.269 
17.794 2.203 -70.349 
6.336 -12.693 -70.535 
6.518 -12.652 -70.499 
13.632 -2.314 -70.779 
13.695 -2.205 -70.906 
8.782 -7.822 -73.773 
8.721 -7.737 -73.844 
-2.486 -8.874 -63.125 
-2.327 -8.669 -63.161 
-8.311 10.918 -66.444 
-8.305 11.144 -66.571 
1.300 2.917 -62.934 
1.412 3.102 -63.120 
-11.575 -4.077 -65.932 
-11.560 -3.769 -65.892 
11.709 -2.995 -72.283 
11.677 -2.987 -72.327 
-13.137 9.679 -76.491 
-13.214 9.727 -76.562 
9.591 -10.083 -70.182 
9.752 -10.179 -70.330 
-2.870 12.096 -70.556 
-3.091 12.161 -70.558 
10.286 -5.296 -65.107 
10.349 -5.209 -65.183 
8.606 3.252 -73.458 
8.601 3.373 -73.640 
4.415 3.242 -65.533 
4.553 3.592 -65.698 
-7.297 0.602 -71.752 
-7.194 0.622 -71.755 
-6.154 1.692 -63.816 
-6.058 1.932 -63.643 
9.749 10.284 -67.466 
9.647 10.267 -67.548 
-8.688 4.841 -69.753 
-8.470 4.901 -69.798 
6.506 -9.205 -64.113 
6.530 -9.046 -64.132 
-9.502 -2.703 -66.971 
-9.416 -2.582 -66.877 
3.156 -10.050 -65.155 
3.406 -9.867 -65.387 
3.432 1.808 -67.049 
3.634 2.045 -67.151 
-8.844 6.352 -72.671 
-8.822 6.449 -72.788 
0.589 3.132 -72.025 
0.666 3.355 -72.059 
-8.892 -2.539 -66.638 
-8.779 -2.299 -66.595 
-9.295 10.967 -66.136 
-9.200 11.152 -66.236 
-7.488 -1.081 -66.640 
-7.378 -0.977 -66.446 
-4.674 -1.932 -66.139 
-4.468 -1.708 -66.003 
-9.662 -2.716 -61.501 
-9.680 -2.456 -61.641 
16.771 10.299 -71.215 
16.707 10.372 -71.379 
-7.184 -7.229 -66.767 
-7.004 -6.983 -66.825 
4.217 -7.148 -72.479 
4.324 -7.071 -72.597 
1.533 -3.207 -67.571 
1.617 -2.846 -67.716 
3.699 -9.432 -67.194 
3.950 -9.256 -67.310 
-10.712 -3.426 -75.493 
-10.694 -3.495 -75.553 
-2.270 -11.576 -63.758 
-2.111 -11.454 -64.021 
-5.013 0.387 -68.796 
-4.973 0.557 -68.680 
-13.764 8.253 -76.691 
-13.820 8.278 -76.698 
0.249 -6.730 -62.627 
0.451 -6.511 -62.727 
-13.560 -11.740 -68.615 
-13.442 -11.557 -68.992 
-8.741 4.432 -60.438 
-8.679 4.735 -60.373 
3.690 -2.008 -65.789 
3.759 -1.721 -65.951 
15.564 4.800 -67.425 
15.603 4.938 -67.502 
2.100 0.052 -67.167 
2.151 0.419 -67.256 
-12.473 5.552 -65.064 
-12.313 5.687 -65.006 
-10.015 6.507 -65.861 
-9.959 6.638 -65.863 
6.421 6.269 -64.172 
6.514 6.655 -64.202 
-13.734 9.598 -73.574 
-13.787 9.681 -73.650 
-12.445 7.790 -69.069 
-12.343 7.794 -69.051 
8.229 -12.811 -69.793 
8.279 -12.802 -69.778 
-2.306 5.291 -74.832 
-2.329 5.404 -75.008 
2.306 -10.383 -72.681 
2.563 -10.137 -72.987 
-0.803 7.485 -68.132 
-0.815 7.745 -68.417 
12.092 -9.686 -74.916 
11.957 -9.549 -74.962 
-14.996 7.722 -70.383 
-14.894 7.738 -70.448 
-9.534 12.936 -66.056 
-9.463 13.080 -66.158 
8.573 11.083 -70.180 
8.408 11.055 -70.301 
9.687 8.835 -71.494 
9.596 8.976 -71.647 
8.074 2.482 -65.957 
8.170 2.769 -66.156 
10.030 -3.776 -63.035 
10.129 -3.663 -63.234 
14.642 -4.923 -73.140 
14.686 -4.769 -73.221 
-13.717 3.461 -66.219 
-13.731 3.696 -66.105 
-12.913 12.278 -72.347 
-12.962 12.228 -72.407 
14.375 -0.129 -66.966 
14.405 0.072 -66.927 
8.871 -2.828 -76.268 
8.878 -2.710 -76.335 
3.504 -2.991 -75.717 
3.454 -2.858 -75.835 
-1.903 -8.120 -62.594 
-1.740 -7.910 -62.792 
-6.753 3.805 -68.102 
-6.666 4.045 -68.130 
5.468 -9.323 -67.014 
5.634 -9.285 -67.162 
15.435 9.208 -70.475 
15.493 9.188 -70.772 
8.585 -3.101 -71.998 
8.565 -3.008 -72.086 
15.428 -3.777 -72.185 
15.470 -3.687 -72.270 
10.179 8.590 -63.892 
10.201 8.847 -63.924 
-2.742 11.950 -68.268 
-2.874 12.159 -68.270 
-10.161 -8.247 -61.573 
-10.051 -7.956 -61.616 
-12.258 -0.498 -68.361 
-12.229 -0.409 -68.216 
-10.138 4.359 -68.380 
-9.969 4.497 -68.516 
15.299 0.485 -70.854 
15.406 0.634 -70.967 
-0.127 -11.407 -64.365 
0.028 -11.233 -64.719 
-12.718 11.616 -66.281 
-12.653 11.653 -66.270 
-12.281 3.681 -66.614 
-12.214 3.903 -66.580 
9.993 -1.156 -65.358 
10.073 -1.063 -65.433 
-0.023 7.376 -63.794 
0.021 7.554 -63.908 
13.918 1.516 -71.597 
14.022 1.709 -71.763 
-0.992 6.006 -65.408 
-0.855 6.160 -65.553 
-3.306 7.764 -65.475 
-3.272 8.177 -65.617 
-9.342 6.139 -70.520 
-9.200 6.169 -70.685 
-6.102 11.225 -67.433 
-6.156 11.440 -67.478 
-8.455 7.798 -74.253 
[...]
POINT_DATA 1036 
SCALARS Umean double 1 
LOOKUP_TABLE default
0.16910 
0.16910 
0.06148 
0.06148 
0.06175 
0.06175 
0.07900 
0.07900 
0.10366 
0.10366 
0.08187 
0.08187 
0.08351 
0.08351 
0.01420 
0.01420 
0.19927 
0.19927 
0.05335 
0.05335 
0.19093 
0.19093 
0.12278 
0.12278 
0.04665 
0.04665 
0.12303 
0.12303 
0.09843 
0.09843 
0.12588 
0.12588 
0.16488 
0.16488 
0.14847 
0.14847 
0.11943 
0.11943 
0.20104 
0.20104 
0.12305 
0.12305 
0.13834 
0.13834 
0.05127 
0.05127 
0.13609 
0.13609 
0.12136 
0.12136 
0.08080 
0.08080 
0.10179 
0.10179 
0.08826 
0.08826 
0.07157 
0.07157 
0.13027 
0.13027 
0.10290 
0.10290 
0.07827 
0.07827 
0.18252 
0.18252 
0.17965 
0.17965 
0.12425 
0.12425 
0.05675 
0.05675 
0.05572 
0.05572 
0.14103 
0.14103 
0.09158 
0.09158 
0.13155 
0.13155 
0.15733 
0.15733 
0.17494 
0.17494 
0.12535 
0.12535 
0.10053 
0.10053 
0.08932 
0.08932 
0.14847 
0.14847 
0.13078 
0.13078 
0.19379 
0.19379 
0.11677 
0.11677 
0.18269 
0.18269 
0.09069 
0.09069 
0.14847 
0.14847 
0.12461 
0.12461 
0.05314 
0.05314 
0.16933 
0.16933 
0.09242 
0.09242 
0.07688 
0.07688 
0.07990 
0.07990 
0.23450 
0.23450 
0.15772 
0.15772 
0.12357 
0.12357 
0.18904 
0.18904 
0.14635 
0.14635 
0.17501 
0.17501 
0.11113 
0.11113 
0.10579 
0.10579 
0.09905 
0.09905 
0.17478 
0.17478 
0.12602 
0.12602 
0.09896 
0.09896 
0.18269 
0.18269 
0.06331 
0.06331 
0.20795 
0.20795 
0.05205 
0.05205 
0.07092 
0.07092 
0.08008 
0.08008 
0.11644 
0.11644 
0.08882 
0.08882 
0.12999 
0.12999 
0.06869 
0.06869 
0.06121 
0.06121 
0.04838 
0.04838 
0.13038 
0.13038 
0.13251 
0.13251 
0.14092 
0.14092 
0.09437 
0.09437 
0.10001 
0.10001 
0.13316 
0.13316 
0.09476 
0.09476 
0.10353 
0.10353 
0.14361 
0.14361 
0.06092 
0.06092 
0.11611 
0.11611 
0.11318 
0.11318 
0.07565 
0.07565 
0.13900 
0.13900 
0.08039 
0.08039 
0.09616 
0.09616 
0.09647 
0.09647 
0.06975 
0.06975 
0.15078 
0.15078 
0.08365 
0.08365 
0.04187 
0.04187 
0.13931 
0.13931 
0.14046 
0.14046 
0.16406 
0.16406 
0.10425 
0.10425 
0.17123 
0.17123 
0.16094 
0.16094 
0.12712 
0.12712 
0.16524 
0.16524 
0.15172 
0.15172 
0.12037 
0.12037 
0.04911 
0.04911 
0.19479 
0.19479 
0.03858 
0.03858 
0.18332 
0.18332 
0.15285 
0.15285 
0.08355 
0.08355 
0.13595 
0.13595 
0.16453 
0.16453 
0.13870 
0.13870 
0.16633 
0.16633 
0.13274 
0.13274 
0.13227 
0.13227 
0.13512 
0.13512 
0.13541 
0.13541 
0.11937 
0.11937 
0.09490 
0.09490 
0.07155 
0.07155 
0.17551 
0.17551 
0.07820 
0.07820 
0.09500 
0.09500 
0.08941 
0.08941 
0.06322 
0.06322 
0.13096 
0.13096 
0.12965 
0.12965 
0.14262 
0.14262 
0.15547 
0.15547 
0.02750 
0.02750 
0.05761 
0.05761 
0.11942 
0.11942 
0.11518 
0.11518 
0.06579 
0.06579 
0.10930 
0.10930 
0.20541 
0.20541 
0.05248 
0.05248 
0.15552 
0.15552 
0.06599 
0.06599 
0.11527 
0.11527 
0.08096 
0.08096 
0.08785 
0.08785 
0.19353 
0.19353 
0.16384 
0.16384 
0.07678 
0.07678 
0.11918 
0.11918 
0.13437 
0.13437 
0.11538 
0.11538 
0.12304 
0.12304 
0.16666 
0.16666 
0.14792 
0.14792 
0.09529 
0.09529 
0.15515 
0.15515 
0.08846 
0.08846 
0.19900 
0.19900 
0.16388 
0.16388 
0.04660 
0.04660 
0.16533 
0.16533 
0.10483 
0.10483 
0.03086 
0.03086 
0.15713 
0.15713 
0.21768 
0.21768 
0.15802 
0.15802 
0.16836 
0.16836 
0.08138 
0.08138 
0.19053 
0.19053 
0.10862 
0.10862 
0.07124 
0.07124 
0.19909 
0.19909 
0.06220 
0.06220 
0.05183 
0.05183 
0.02649 
0.02649 
0.10521 
0.10521 
0.23463 
0.23463 
0.19298 
0.19298 
0.09888 
0.09888 
0.06100 
0.06100 
0.09511 
0.09511 
0.10326 
0.10326 
0.11355 
0.11355 
0.18110 
0.18110 
0.12467 
0.12467 
0.08974 
0.08974 
0.13078 
0.13078 
0.04610 
0.04610 
0.10347 
0.10347 
0.06794 
0.06794 
0.09235 
0.09235 
0.16574 
0.16574 
0.12841 
0.12841 
0.11281 
0.11281 
0.15164 
0.15164 
0.06479 
0.06479 
0.06536 
0.06536 
0.12996 
0.12996 
0.12360 
0.12360 
0.15703 
0.15703 
0.08629 
0.08629 
0.12855 
0.12855 
0.10773 
0.10773 
0.21191 
0.21191 
0.03780 
0.03780 
0.11718 
0.11718 
0.07189 
0.07189 
0.10795 
0.10795 
0.13750 
0.13750 
0.12601 
0.12601 
0.21903 
0.21903 
0.10987 
0.10987 
0.11310 
0.11310 
0.04675 
0.04675 
0.16076 
0.16076 
0.12848 
0.12848 
0.13209 
0.13209 
0.14344 
0.14344 
0.13864 
0.13864 
0.17840 
0.17840 
0.15937 
0.15937 
0.13472 
0.13472 
0.10864 
0.10864 
0.03171 
0.03171 
0.08413 
0.08413 
0.06080 
0.06080 
0.14072 
0.14072 
0.12467 
0.12467 
0.09316 
0.09316 
0.09298 
0.09298 
0.15312 
0.15312 
0.05246 
0.05246 
0.06784 
0.06784 
0.09686 
0.09686 
0.02815 
0.02815 
0.04369 
0.04369 
0.18266 
0.18266 
0.21320 
0.21320 
0.04871 
0.04871 
0.16454 
0.16454 
0.17008 
0.17008 
0.10762 
0.10762 
0.16844 
0.16844 
0.07718 
0.07718 
0.07608 
0.07608 
0.00548 
0.00548 
0.08936 
0.08936 
0.13619 
0.13619 
0.21112 
0.21112 
0.14440 
0.14440 
0.11917 
0.11917 
0.07936 
0.07936 
0.08536 
0.08536 
0.10754 
0.10754 
0.07620 
0.07620 
0.14626 
0.14626 
0.06280 
0.06280 
0.14881 
0.14881 
0.05106 
0.05106 
0.11483 
0.11483 
0.09874 
0.09874 
0.08020 
0.08020 
0.10228 
0.10228 
0.15149 
0.15149 
0.12490 
0.12490 
0.06976 
0.06976 
0.05461 
0.05461 
0.13004 
0.13004 
0.18433 
0.18433 
0.07868 
0.07868 
0.11388 
0.11388 
0.14050 
0.14050 
0.16226 
0.16226 
0.21506 
0.21506 
0.05495 
0.05495 
0.15971 
0.15971 
0.07721 
0.07721 
0.10857 
0.10857 
0.06829 
0.06829 
0.06293 
0.06293 
0.09911 
0.09911 
0.10300 
0.10300 
0.09308 
0.09308 
0.18986 
0.18986 
0.13438 
0.13438 
0.19270 
0.19270 
0.12342 
0.12342 
0.13018 
0.13018 
0.11483 
0.11483 
0.06612 
0.06612 
0.15814 
0.15814 
0.12494 
0.12494 
0.13399 
0.13399 
0.23544 
0.23544 
0.12198 
0.12198 
0.11369 
0.11369 
0.11221 
0.11221 
0.13424 
0.13424 
0.06169 
0.06169 
0.10190 
0.10190 
0.08296 
0.08296 
0.10335 
0.10335 
0.07467 
0.07467 
0.07037 
0.07037 
0.07535 
0.07535 
0.06860 
0.06860 
0.07322 
0.07322 
0.15465 
0.15465 
0.12980 
0.12980 
0.12741 
0.12741 
0.08567 
0.08567 
0.07111 
0.07111 
0.18008 
0.18008 
0.10991 
0.10991 
0.15696 
0.15696 
0.20054 
0.20054 
0.11942 
0.11942 
0.08624 
0.08624 
0.22686 
0.22686 
0.18238 
0.18238 
0.12574 
0.12574 
0.15955 
0.15955 
0.20271 
0.20271 
0.14165 
0.14165 
0.17920 
0.17920 
0.16109 
0.16109 
0.16548 
0.16548 
0.17977 
0.17977 
0.10470 
0.10470 
0.09512 
0.09512 
0.16540 
0.16540 
0.14411 
0.14411 
0.12517 
0.12517 
0.08106 
0.08106 
0.09984 
0.09984 
0.11492 
0.11492 
0.13086 
0.13086 
0.11907 
0.11907 
0.16886 
0.16886 
0.11195 
0.11195 
0.07938 
0.07938 
0.13801 
0.13801 
0.05813 
0.05813 
0.09930 
0.09930 
0.20196 
0.20196 
0.15205 
0.15205 
0.17493 
0.17493 
0.16691 
0.16691 
0.07785 
0.07785 
0.12314 
0.12314 
0.10440 
0.10440 
0.23729 
0.23729 
0.14716 
0.14716 
0.10428 
0.10428 
0.11501 
0.11501 
0.12873 
0.12873 
0.10547 
0.10547 
0.08378 
0.08378 
0.06693 
0.06693 
0.22275 
0.22275 
0.13401 
0.13401 
0.06309 
0.06309 
0.17071 
0.17071 
0.14929 
0.14929 
0.15344 
0.15344 
0.06076 
0.06076 
0.15116 
0.15116 
0.09943 
0.09943 
0.17222 
0.17222 
0.15472 
0.15472 
0.11921 
0.11921 
0.09756 
0.09756 
0.17964 
0.17964 
0.15319 
0.15319 
0.22930 
0.22930 
0.16643 
0.16643 
0.05463 
0.05463 
0.24132 
0.24132 
0.05054 
0.05054 
0.11806 
0.11806 
0.06967 
0.06967 
0.09002 
0.09002 
0.12966 
0.12966 
0.13157 
0.13157 
0.18322 
0.18322 
0.05860 
0.05860 
0.12136 
0.12136 
0.10736 
0.10736 
0.11040 
0.11040 
0.15810 
0.15810 
0.09460 
0.09460 
0.11039 
0.11039 
0.09815 
0.09815 
0.10699 
0.10699 
0.10196 
0.10196 
0.07109 
0.07109 
0.11634 
0.11634 
0.07168 
0.07168 
0.02740 
0.02740 
0.21159 
0.21159 
0.09901 
0.09901 
0.24162 
0.24162 
0.11900 
0.11900 
0.04452 
0.04452 
0.06809 
0.06809 
0.18732 
0.18732 
0.19020 
0.19020 
0.07163 
0.07163 
0.08632 
0.08632 
0.15723 
0.15723 
0.05798 
0.05798 
0.11117 
0.11117 
0.09541 
0.09541 
0.08728 
0.08728 
0.06190 
0.06190 
0.16855 
0.16855 
0.17678 
0.17678 
0.12409 
0.12409 
0.09345 
0.09345 
0.16683 
0.16683 
0.15973 
0.15973 
0.22778 
0.22778 
0.09104 
0.09104 
0.17962 
0.17962 
0.05027 
0.05027 
0.15569 
0.15569 
0.20150 
0.20150 
0.11982 
0.11982 
0.09918 
0.09918 
0.08264 
0.08264 
0.20399 
0.20399 
0.13424 
0.13424 
0.15480 
0.15480 
0.08112 
0.08112 
0.06595 
0.06595 
0.14341 
0.14341 
0.07083 
0.07083 
0.13730 
0.13730 
0.24875 
0.24875 
0.13146 
0.13146 
0.08148 
0.08148 
0.13602 
0.13602 
0.05031 
0.05031 
0.12261 
0.12261 
0.08429 
0.08429 
0.16171 
0.16171 
0.09176 
0.09176 
0.11190 
0.11190 
0.10777 
0.10777 
0.12850 
0.12850 
0.05123 
0.05123 
0.17526 
0.17526 
0.12505 
0.12505 
0.06918 
0.06918 
0.23743 
0.23743 
0.15508 
0.15508 
0.14210 
0.14210 
0.15259 
0.15259 
0.09485 
0.09485 
0.13169 
0.13169 
0.11534 
0.11534 
0.07669 
0.07669 
0.06820 
0.06820 
0.12495 
0.12495 
0.12388 
0.12388 
0.14382 
0.14382 
0.04403 
0.04403 
0.13355 
0.13355 
0.19648 
0.19648 
0.11397 
0.11397 
0.18297 
0.18297 
0.13871 
0.13871 
0.10385 
0.10385 
0.16866 
0.16866 
0.11480 
0.11480 
0.05846 
0.05846 
0.06090 
0.06090 
0.12113 
0.12113 
0.11215 
0.11215 
0.09392 
0.09392 
0.09451 
0.09451 
0.15086 
0.15086 
0.12611 
0.12611 
0.10690 
0.10690 
0.19524 
0.19524 
0.09758 
0.09758 
0.08644 
0.08644 
0.08066 
0.08066 
0.05669 
0.05669 
0.17356 
0.17356 
0.12311 
0.12311 
0.07232 
0.07232 
0.14887 
0.14887 
0.12754 
0.12754 
0.08344 
0.08344 
0.14674 
0.14674 
0.09961 
0.09961 
0.11021 
0.11021 
0.13821 
0.13821 
0.04753 
0.04753 
0.09073 
0.09073 
0.13735 
0.13735 
0.18957 
0.18957 
0.17820 
0.17820 
0.10955 
0.10955 
0.07569 
0.07569 
0.10520 
0.10520 
0.09910 
0.09910 
0.05840 
0.05840 
0.04475 
0.04475 
0.13575 
0.13575 
SCALARS Umean_X double 1 
LOOKUP_TABLE default
-0.03350 
-0.03350 
0.01950 
0.01950 
0.03250 
0.03250 
-0.02750 
-0.02750 
-0.01500 
-0.01500 
0.00550 
0.00550 
0.04300 
0.04300 
0.00950 
0.00950 
-0.00900 
-0.00900 
0.03400 
0.03400 
0.05750 
0.05750 
-0.04150 
-0.04150 
-0.00750 
-0.00750 
-0.03450 
-0.03450 
-0.02550 
-0.02550 
-0.00050 
-0.00050 
0.03350 
0.03350 
-0.04500 
-0.04500 
0.06250 
0.06250 
0.06700 
0.06700 
0.01250 
0.01250 
0.06500 
0.06500 
0.00850 
0.00850 
-0.02450 
-0.02450 
-0.03650 
-0.03650 
-0.04250 
-0.04250 
0.01250 
0.01250 
0.04600 
0.04600 
0.02400 
0.02400 
-0.00350 
-0.00350 
0.08850 
0.08850 
0.06800 
0.06800 
0.05350 
0.05350 
0.08800 
0.08800 
-0.04400 
-0.04400 
0.04200 
0.04200 
-0.03050 
-0.03050 
0.04500 
0.04500 
0.07300 
0.07300 
-0.02450 
-0.02450 
0.05700 
0.05700 
0.00850 
0.00850 
0.06700 
0.06700 
-0.08500 
-0.08500 
-0.03400 
-0.03400 
0.03000 
0.03000 
0.01400 
0.01400 
0.07450 
0.07450 
0.02800 
0.02800 
0.02700 
0.02700 
0.06150 
0.06150 
0.00550 
0.00550 
0.03850 
0.03850 
-0.03150 
-0.03150 
0.04600 
0.04600 
0.01250 
0.01250 
0.06550 
0.06550 
-0.02950 
-0.02950 
0.06700 
0.06700 
-0.02050 
-0.02050 
0.03750 
0.03750 
0.06000 
0.06000 
0.05750 
0.05750 
0.01550 
0.01550 
-0.02550 
-0.02550 
0.02750 
0.02750 
0.03750 
0.03750 
0.13100 
0.13100 
0.01800 
0.01800 
0.01300 
0.01300 
0.06350 
0.06350 
-0.03300 
-0.03300 
0.05800 
0.05800 
0.04750 
0.04750 
0.03700 
0.03700 
0.05600 
0.05600 
0.02800 
0.02800 
0.00600 
0.00600 
-0.01850 
-0.01850 
0.02750 
0.02750 
-0.01100 
-0.01100 
0.00950 
0.00950 
0.01600 
0.01600 
0.05150 
0.05150 
0.07950 
0.07950 
-0.00750 
-0.00750 
0.02000 
0.02000 
0.03800 
0.03800 
-0.05300 
-0.05300 
0.03850 
0.03850 
0.09400 
0.09400 
-0.00000 
-0.00000 
0.04000 
0.04000 
-0.00750 
-0.00750 
0.01900 
0.01900 
0.00950 
0.00950 
0.04500 
0.04500 
-0.03500 
-0.03500 
0.04550 
0.04550 
-0.01250 
-0.01250 
0.03900 
0.03900 
0.00850 
0.00850 
-0.00050 
-0.00050 
0.00900 
0.00900 
0.04850 
0.04850 
-0.05800 
-0.05800 
-0.07750 
-0.07750 
0.05050 
0.05050 
0.09500 
0.09500 
0.09800 
0.09800 
-0.01500 
-0.01500 
0.01500 
0.01500 
-0.09850 
-0.09850 
-0.01500 
-0.01500 
0.06050 
0.06050 
-0.01250 
-0.01250 
0.06950 
0.06950 
-0.09300 
-0.09300 
-0.06200 
-0.06200 
0.07950 
0.07950 
0.01250 
0.01250 
0.12050 
0.12050 
0.02650 
0.02650 
0.02800 
0.02800 
-0.00950 
-0.00950 
0.03000 
0.03000 
-0.00300 
-0.00300 
-0.06500 
-0.06500 
-0.03150 
-0.03150 
0.03550 
0.03550 
0.07650 
0.07650 
0.01500 
0.01500 
0.09100 
0.09100 
0.03150 
0.03150 
-0.03050 
-0.03050 
0.07950 
0.07950 
0.00300 
0.00300 
0.05600 
0.05600 
0.00750 
0.00750 
-0.01600 
-0.01600 
-0.03850 
-0.03850 
0.08050 
0.08050 
-0.11050 
-0.11050 
0.03150 
0.03150 
-0.00250 
-0.00250 
0.06900 
0.06900 
0.05150 
0.05150 
0.04800 
0.04800 
-0.05100 
-0.05100 
0.10900 
0.10900 
0.01200 
0.01200 
0.04300 
0.04300 
0.12500 
0.12500 
0.10100 
0.10100 
0.01100 
0.01100 
0.03850 
0.03850 
0.05650 
0.05650 
0.04750 
0.04750 
0.05500 
0.05500 
0.10300 
0.10300 
-0.00900 
-0.00900 
-0.03200 
-0.03200 
0.09000 
0.09000 
0.05350 
0.05350 
0.04200 
0.04200 
0.12550 
0.12550 
0.00900 
0.00900 
0.07950 
0.07950 
0.02000 
0.02000 
-0.02800 
-0.02800 
0.10100 
0.10100 
0.05900 
0.05900 
0.03100 
0.03100 
0.03450 
0.03450 
0.01950 
0.01950 
0.02550 
0.02550 
0.08000 
0.08000 
0.02800 
0.02800 
0.04650 
0.04650 
-0.02650 
-0.02650 
0.05100 
0.05100 
0.02500 
0.02500 
-0.01150 
-0.01150 
0.12850 
0.12850 
-0.00600 
-0.00600 
-0.06750 
-0.06750 
0.05100 
0.05100 
0.03550 
0.03550 
-0.08250 
-0.08250 
-0.04550 
-0.04550 
0.04800 
0.04800 
0.04950 
0.04950 
0.02200 
0.02200 
-0.00700 
-0.00700 
-0.02450 
-0.02450 
0.01500 
0.01500 
0.00350 
0.00350 
-0.02500 
-0.02500 
0.08150 
0.08150 
0.04350 
0.04350 
0.08300 
0.08300 
0.02900 
0.02900 
-0.01000 
-0.01000 
0.02100 
0.02100 
0.01100 
0.01100 
-0.06600 
-0.06600 
0.05500 
0.05500 
0.01450 
0.01450 
0.08450 
0.08450 
0.05350 
0.05350 
0.07750 
0.07750 
0.03250 
0.03250 
0.03350 
0.03350 
0.04000 
0.04000 
0.02200 
0.02200 
0.05200 
0.05200 
0.06850 
0.06850 
0.01700 
0.01700 
0.07100 
0.07100 
-0.02700 
-0.02700 
-0.02050 
-0.02050 
0.03450 
0.03450 
0.07400 
0.07400 
0.02750 
0.02750 
0.03200 
0.03200 
0.12150 
0.12150 
0.12750 
0.12750 
0.07900 
0.07900 
0.01250 
0.01250 
0.05600 
0.05600 
-0.01800 
-0.01800 
0.01900 
0.01900 
0.03800 
0.03800 
-0.01300 
-0.01300 
-0.07100 
-0.07100 
-0.03050 
-0.03050 
0.04650 
0.04650 
-0.05350 
-0.05350 
0.00350 
0.00350 
-0.04000 
-0.04000 
0.06300 
0.06300 
0.01600 
0.01600 
-0.02800 
-0.02800 
0.03850 
0.03850 
0.08950 
0.08950 
-0.03850 
-0.03850 
-0.00050 
-0.00050 
0.12950 
0.12950 
-0.05050 
-0.05050 
0.01900 
0.01900 
0.01100 
0.01100 
0.05950 
0.05950 
0.00500 
0.00500 
0.05850 
0.05850 
0.05500 
0.05500 
0.07950 
0.07950 
0.05400 
0.05400 
0.10400 
0.10400 
0.03350 
0.03350 
0.00700 
0.00700 
0.07300 
0.07300 
0.02200 
0.02200 
0.02000 
0.02000 
0.01850 
0.01850 
0.06150 
0.06150 
-0.01250 
-0.01250 
0.06950 
0.06950 
-0.05450 
-0.05450 
0.02550 
0.02550 
0.09600 
0.09600 
0.02050 
0.02050 
-0.08550 
-0.08550 
0.01400 
0.01400 
-0.04350 
-0.04350 
0.07050 
0.07050 
0.05500 
0.05500 
-0.02500 
-0.02500 
-0.05200 
-0.05200 
0.03200 
0.03200 
0.10050 
0.10050 
-0.04850 
-0.04850 
-0.02400 
-0.02400 
-0.07200 
-0.07200 
0.03700 
0.03700 
0.05500 
0.05500 
0.05800 
0.05800 
-0.01800 
-0.01800 
0.01700 
0.01700 
0.01600 
0.01600 
-0.02000 
-0.02000 
0.06800 
0.06800 
0.03700 
0.03700 
0.08100 
0.08100 
-0.07600 
-0.07600 
0.04200 
0.04200 
0.05100 
0.05100 
0.02900 
0.02900 
0.06000 
0.06000 
0.03450 
0.03450 
0.02400 
0.02400 
0.14250 
0.14250 
-0.02200 
-0.02200 
0.09250 
0.09250 
-0.03150 
-0.03150 
-0.00800 
-0.00800 
-0.04000 
-0.04000 
0.03950 
0.03950 
0.03750 
0.03750 
0.02600 
0.02600 
-0.05200 
-0.05200 
0.03200 
0.03200 
-0.03550 
-0.03550 
0.02000 
0.02000 
0.05200 
0.05200 
0.03550 
0.03550 
0.05050 
0.05050 
0.04150 
0.04150 
-0.02650 
-0.02650 
0.06950 
0.06950 
0.11000 
0.11000 
-0.02900 
-0.02900 
0.03200 
0.03200 
0.10450 
0.10450 
0.07100 
0.07100 
0.03250 
0.03250 
0.07450 
0.07450 
0.00300 
0.00300 
0.06000 
0.06000 
0.09500 
0.09500 
0.05350 
0.05350 
-0.02200 
-0.02200 
0.08250 
0.08250 
0.04650 
0.04650 
0.01100 
0.01100 
0.07000 
0.07000 
0.08400 
0.08400 
0.05600 
0.05600 
0.11800 
0.11800 
-0.00150 
-0.00150 
0.03100 
0.03100 
0.06450 
0.06450 
0.05850 
0.05850 
0.08750 
0.08750 
-0.06800 
-0.06800 
-0.05200 
-0.05200 
0.09200 
0.09200 
0.00100 
0.00100 
-0.00550 
-0.00550 
0.00150 
0.00150 
0.01900 
0.01900 
0.03400 
0.03400 
0.12550 
0.12550 
-0.01150 
-0.01150 
0.10650 
0.10650 
0.08850 
0.08850 
0.03500 
0.03500 
0.02650 
0.02650 
-0.04350 
-0.04350 
0.03600 
0.03600 
0.03700 
0.03700 
0.02650 
0.02650 
0.00200 
0.00200 
0.01700 
0.01700 
0.02100 
0.02100 
0.01600 
0.01600 
-0.06150 
-0.06150 
0.11550 
0.11550 
-0.02800 
-0.02800 
0.05900 
0.05900 
0.01300 
0.01300 
0.04950 
0.04950 
0.01500 
0.01500 
0.04400 
0.04400 
0.12550 
0.12550 
0.03700 
0.03700 
0.12800 
0.12800 
0.11350 
0.11350 
0.03100 
0.03100 
0.05850 
0.05850 
0.04800 
0.04800 
0.04200 
0.04200 
0.17400 
0.17400 
0.08050 
0.08050 
0.02200 
0.02200 
0.04500 
0.04500 
0.02200 
0.02200 
-0.01550 
-0.01550 
0.01600 
0.01600 
0.03750 
0.03750 
-0.08150 
-0.08150 
0.00950 
0.00950 
-0.01000 
-0.01000 
-0.02700 
-0.02700 
0.04500 
0.04500 
0.08700 
0.08700 
-0.06550 
-0.06550 
0.07400 
0.07400 
0.05950 
0.05950 
-0.09400 
-0.09400 
0.05500 
0.05500 
0.02850 
0.02850 
0.00800 
0.00800 
0.05050 
0.05050 
-0.05850 
-0.05850 
0.01600 
0.01600 
0.01950 
0.01950 
0.09800 
0.09800 
-0.05550 
-0.05550 
0.16600 
0.16600 
0.09850 
0.09850 
0.01850 
0.01850 
-0.02350 
-0.02350 
0.13800 
0.13800 
0.06650 
0.06650 
0.00350 
0.00350 
-0.00200 
-0.00200 
0.04550 
0.04550 
0.01150 
0.01150 
0.01200 
0.01200 
0.09400 
0.09400 
0.05850 
0.05850 
-0.00700 
-0.00700 
0.08900 
0.08900 
0.12600 
0.12600 
-0.07550 
-0.07550 
-0.05600 
-0.05600 
-0.09150 
-0.09150 
0.00850 
0.00850 
0.01900 
0.01900 
-0.03250 
-0.03250 
-0.00000 
-0.00000 
0.02750 
0.02750 
0.00150 
0.00150 
0.04200 
0.04200 
0.01500 
0.01500 
-0.02000 
-0.02000 
-0.05750 
-0.05750 
0.11750 
0.11750 
-0.02800 
-0.02800 
0.07000 
0.07000 
0.07000 
0.07000 
-0.04650 
-0.04650 
-0.07100 
-0.07100 
-0.04400 
-0.04400 
0.02300 
0.02300 
0.12650 
0.12650 
0.04550 
0.04550 
0.07550 
0.07550 
-0.01300 
-0.01300 
0.02500 
0.02500 
0.04350 
0.04350 
-0.01900 
-0.01900 
0.10150 
0.10150 
0.01150 
0.01150 
-0.04350 
-0.04350 
-0.08300 
-0.08300 
0.00350 
0.00350 
0.04650 
0.04650 
0.15500 
0.15500 
-0.04000 
-0.04000 
0.00300 
0.00300 
0.12700 
0.12700 
0.06100 
0.06100 
0.07350 
0.07350 
0.01550 
0.01550 
0.05600 
0.05600 
-0.00100 
-0.00100 
0.03850 
0.03850 
0.05400 
0.05400 
-0.01450 
-0.01450 
-0.04800 
-0.04800 
0.09250 
0.09250 
-0.04050 
-0.04050 
0.00850 
0.00850 
-0.02550 
-0.02550 
-0.00650 
-0.00650 
0.01900 
0.01900 
0.03150 
0.03150 
-0.05400 
-0.05400 
-0.03650 
-0.03650 
-0.00450 
-0.00450 
-0.00750 
-0.00750 
-0.02100 
-0.02100 
0.04500 
0.04500 
0.06800 
0.06800 
0.06100 
0.06100 
0.03000 
0.03000 
-0.00700 
-0.00700 
0.03500 
0.03500 
0.02000 
0.02000 
0.09650 
0.09650 
0.11350 
0.11350 
-0.05850 
-0.05850 
-0.07550 
-0.07550 
0.01550 
0.01550 
0.02900 
0.02900 
0.06100 
0.06100 
-0.05000 
-0.05000 
0.00200 
0.00200 
0.05000 
0.05000 
-0.03900 
-0.03900 
0.02250 
0.02250 
-0.06450 
-0.06450 
0.05300 
0.05300 
-0.10100 
-0.10100 
-0.00150 
-0.00150 
-0.01900 
-0.01900 
-0.04250 
-0.04250 
0.10000 
0.10000 
0.14400 
0.14400 
-0.01700 
-0.01700 
-0.02100 
-0.02100 
-0.02000 
-0.02000 
-0.08000 
-0.08000 
0.05600 
0.05600 
-0.05150 
-0.05150 
-0.01650 
-0.01650 
-0.07200 
-0.07200 
SCALARS Umean_Y double 1 
LOOKUP_TABLE default
0.16400 
0.16400 
0.03000 
0.03000 
0.05100 
0.05100 
0.07300 
0.07300 
0.07050 
0.07050 
0.06850 
0.06850 
0.06650 
0.06650 
0.00100 
0.00100 
0.18850 
0.18850 
0.02700 
0.02700 
0.17750 
0.17750 
0.10600 
0.10600 
0.02600 
0.02600 
0.08450 
0.08450 
0.07250 
0.07250 
0.12200 
0.12200 
0.14450 
0.14450 
0.05700 
0.05700 
0.09000 
0.09000 
0.16600 
0.16600 
0.12200 
0.12200 
0.10400 
0.10400 
0.05000 
0.05000 
0.10950 
0.10950 
0.07400 
0.07400 
0.06850 
0.06850 
0.09400 
0.09400 
0.05200 
0.05200 
0.05500 
0.05500 
0.10750 
0.10750 
0.04950 
0.04950 
0.01950 
0.01950 
0.17450 
0.17450 
0.11050 
0.11050 
0.06900 
0.06900 
0.01400 
0.01400 
0.04650 
0.04650 
0.13200 
0.13200 
0.05350 
0.05350 
0.10700 
0.10700 
0.14650 
0.14650 
0.17450 
0.17450 
0.09850 
0.09850 
0.00850 
0.00850 
0.07550 
0.07550 
0.14350 
0.14350 
0.12450 
0.12450 
0.14800 
0.14800 
0.11200 