# vtk DataFile Version 2.1 
Trajects from timestep 3 with color option 
ASCII 
 
DATASET POLYDATA POINTS 1094 float 
-8.758 -2.414 -74.198 
-8.839 -2.416 -74.285 
-1.569 3.836 -69.050 
-1.673 3.949 -69.165 
-3.248 -1.542 -71.269 
-3.255 -1.482 -71.497 
6.730 1.191 -71.317 
6.602 1.231 -71.440 
1.773 -4.247 -71.185 
1.796 -4.238 -71.275 
0.723 -4.923 -70.446 
0.757 -4.879 -70.418 
-6.008 3.792 -71.149 
-5.973 3.772 -71.166 
-10.050 -2.241 -71.104 
-10.165 -2.201 -71.153 
-4.220 -9.251 -72.153 
-4.254 -9.195 -72.123 
-6.380 6.567 -69.602 
-6.386 6.703 -69.726 
-7.289 5.531 -70.839 
-7.297 5.514 -70.924 
-4.943 -3.028 -72.465 
-5.047 -2.960 -72.535 
-5.106 3.664 -73.274 
-5.029 3.698 -73.414 
-2.491 -12.190 -73.875 
-2.401 -12.129 -73.918 
-2.245 -3.755 -75.133 
-2.299 -3.726 -75.195 
2.276 0.699 -72.598 
2.271 0.665 -72.811 
9.189 6.398 -72.575 
9.114 6.427 -72.736 
-5.393 -0.946 -71.012 
-5.455 -0.935 -71.127 
-3.042 -10.804 -71.973 
-3.152 -10.681 -71.865 
2.363 6.687 -70.162 
2.338 6.671 -70.231 
4.708 1.988 -69.996 
4.643 1.945 -70.103 
8.295 4.479 -68.472 
8.144 4.524 -68.596 
3.141 -5.424 -72.109 
3.157 -5.424 -72.278 
-4.505 7.847 -68.416 
-4.499 8.070 -68.558 
-0.283 -8.240 -74.444 
-0.336 -8.210 -74.421 
-5.853 11.069 -66.715 
-5.838 11.331 -66.869 
-13.900 -3.911 -74.689 
-14.016 -3.871 -74.744 
-3.806 -1.741 -73.809 
-3.795 -1.772 -73.863 
7.634 -4.907 -72.603 
7.650 -5.014 -72.635 
2.582 12.577 -70.475 
2.692 12.645 -70.610 
-10.882 -7.626 -72.306 
-10.880 -7.658 -72.217 
-8.486 7.999 -72.911 
-8.424 8.040 -72.959 
4.514 -11.653 -70.137 
4.460 -11.815 -70.152 
1.142 11.099 -67.666 
1.210 11.168 -67.735 
3.207 4.660 -68.434 
3.100 4.681 -68.545 
6.059 11.163 -69.195 
6.017 11.282 -69.424 
-3.764 10.530 -73.184 
-3.721 10.549 -73.377 
4.714 8.939 -69.196 
4.613 8.981 -69.395 
-1.522 8.603 -67.759 
-1.555 8.642 -68.011 
-5.007 12.061 -68.197 
-4.978 12.097 -68.317 
5.593 0.835 -66.564 
5.554 0.873 -66.625 
-5.785 7.705 -76.740 
-5.842 7.747 -76.735 
11.095 7.001 -71.833 
11.066 7.029 -71.980 
-0.831 -2.862 -71.120 
-0.840 -2.857 -71.315 
-11.472 -6.160 -70.130 
-11.493 -6.014 -70.211 
6.344 -10.965 -73.480 
6.337 -10.914 -73.583 
11.240 -6.749 -70.331 
11.293 -6.769 -70.340 
4.785 -3.955 -69.971 
4.814 -3.926 -70.086 
-15.594 -3.515 -73.287 
-15.672 -3.485 -73.283 
6.884 4.244 -69.416 
6.791 4.222 -69.537 
-11.694 6.283 -73.060 
-11.781 6.321 -72.997 
-8.104 -7.788 -71.202 
-8.051 -7.633 -71.166 
-5.533 4.911 -71.843 
-5.453 4.964 -71.889 
4.562 3.581 -66.836 
4.493 3.611 -66.904 
13.094 -7.074 -73.552 
13.156 -7.142 -73.632 
-9.285 -11.970 -72.788 
-9.256 -11.984 -72.605 
-12.438 1.995 -69.654 
-12.463 2.004 -69.651 
4.265 1.167 -69.554 
4.121 1.224 -69.701 
-5.783 -5.746 -72.069 
-5.745 -5.656 -72.106 
3.193 11.787 -71.228 
3.345 11.867 -71.364 
-4.188 -4.956 -71.539 
-4.294 -4.862 -71.576 
3.813 -1.991 -72.169 
3.891 -1.988 -72.362 
-10.046 5.202 -67.025 
-10.028 5.146 -67.069 
-11.848 11.649 -73.693 
-11.860 11.689 -73.637 
-5.120 2.639 -69.105 
-5.106 2.810 -69.273 
-6.851 11.496 -66.308 
-6.868 11.699 -66.346 
-4.278 8.877 -64.018 
-4.229 9.053 -64.209 
6.615 -6.587 -69.171 
6.638 -6.631 -69.171 
-3.848 -4.409 -65.365 
-3.754 -4.147 -65.547 
11.597 3.071 -66.125 
11.378 3.183 -66.033 
-12.314 -7.813 -70.811 
-12.365 -7.720 -70.628 
8.404 9.247 -68.316 
8.238 9.327 -68.508 
2.325 0.897 -66.613 
2.333 1.004 -66.686 
-7.877 -1.154 -64.172 
-7.813 -0.885 -64.265 
-13.660 -3.137 -77.279 
-13.758 -2.996 -77.565 
7.464 -0.162 -66.194 
7.375 -0.092 -66.130 
4.779 -2.687 -68.721 
4.794 -2.642 -68.942 
-11.587 -8.482 -72.544 
-11.616 -8.472 -72.326 
12.952 10.019 -72.319 
12.782 10.086 -72.326 
5.054 -0.881 -65.334 
5.005 -0.825 -65.363 
0.138 -1.310 -66.216 
0.137 -1.187 -66.320 
-4.688 5.762 -69.230 
-4.765 6.084 -69.462 
-2.491 9.145 -66.069 
-2.415 9.246 -66.243 
14.143 1.920 -68.902 
14.008 2.114 -68.976 
-11.156 -0.577 -66.214 
-11.263 -0.447 -66.160 
-6.965 -5.733 -70.448 
-6.920 -5.563 -70.490 
1.424 3.437 -66.821 
1.349 3.512 -66.939 
-1.747 4.076 -77.041 
-1.723 4.078 -77.116 
-15.366 -4.031 -77.474 
-15.388 -3.928 -77.600 
-5.745 -4.870 -68.685 
-5.644 -4.665 -68.578 
8.256 1.043 -64.726 
8.127 1.064 -64.738 
-0.671 8.360 -63.040 
-0.459 8.602 -63.088 
-7.700 -0.776 -70.046 
-7.650 -0.834 -70.074 
-4.775 8.382 -67.527 
-4.708 8.683 -67.705 
-0.945 9.920 -65.798 
-0.940 9.973 -65.998 
-7.178 9.323 -62.295 
-7.091 9.534 -62.382 
10.931 -10.341 -72.311 
11.047 -10.288 -72.382 
-2.784 -6.704 -69.799 
-2.674 -6.459 -69.835 
8.752 -4.046 -73.389 
8.860 -4.154 -73.454 
-3.017 7.854 -68.218 
-3.054 7.918 -68.406 
-7.346 -4.257 -69.927 
-7.322 -4.203 -69.931 
14.513 4.530 -67.115 
14.364 4.604 -67.108 
-2.405 3.688 -68.729 
-2.515 3.791 -68.832 
-9.993 1.614 -70.642 
-9.953 1.602 -70.816 
-12.530 -1.085 -69.427 
-12.569 -1.148 -69.541 
7.609 9.053 -64.239 
7.632 9.168 -64.431 
-7.273 7.070 -66.602 
-7.196 7.243 -66.651 
-10.685 1.282 -65.949 
-10.607 1.204 -66.078 
6.038 -2.501 -65.386 
6.055 -2.384 -65.480 
2.835 2.510 -77.771 
2.826 2.536 -77.901 
-11.643 -4.637 -75.011 
-11.687 -4.730 -75.147 
-9.696 3.771 -65.958 
-9.746 3.883 -66.032 
3.024 5.365 -63.279 
2.868 5.489 -63.248 
-10.385 -7.308 -70.082 
-10.401 -7.130 -69.951 
3.158 10.926 -70.579 
3.256 10.962 -70.722 
2.426 8.007 -61.450 
2.482 8.348 -61.549 
13.003 0.781 -68.308 
12.799 0.851 -68.459 
13.557 6.156 -69.849 
13.406 6.324 -69.903 
-4.287 1.890 -72.031 
-4.202 1.922 -72.238 
-8.582 5.580 -65.882 
-8.520 5.774 -65.904 
-1.453 12.956 -66.312 
-1.266 13.116 -66.300 
-5.358 -10.473 -72.967 
-5.406 -10.394 -72.989 
5.299 3.132 -68.098 
5.233 3.139 -68.188 
-1.472 7.578 -73.522 
-1.289 7.678 -73.666 
-9.172 9.107 -63.956 
-9.186 9.279 -63.877 
6.854 11.322 -70.284 
6.826 11.402 -70.465 
-9.424 3.902 -68.441 
-9.448 3.853 -68.519 
8.721 -9.207 -68.052 
8.795 -9.020 -68.022 
3.529 0.586 -63.958 
3.565 0.794 -64.117 
-8.460 -4.703 -65.667 
-8.401 -4.508 -65.613 
13.354 11.795 -71.432 
13.197 11.878 -71.677 
-13.198 -3.511 -69.850 
-13.177 -3.624 -69.907 
-13.204 -1.451 -76.643 
-13.255 -1.379 -76.840 
7.607 -12.239 -68.261 
7.705 -12.016 -68.306 
-7.768 12.278 -69.776 
-7.750 12.213 -69.863 
-5.532 -9.364 -71.773 
-5.582 -9.278 -71.847 
0.930 -1.645 -65.002 
0.992 -1.521 -65.180 
5.867 -8.963 -67.452 
5.868 -8.849 -67.450 
-8.504 5.762 -75.413 
-8.509 5.783 -75.358 
-10.194 3.177 -65.796 
-10.234 3.264 -65.934 
8.023 -12.934 -67.572 
8.123 -12.703 -67.600 
-0.137 12.410 -66.280 
-0.075 12.441 -66.314 
-14.175 -5.722 -69.760 
-14.248 -5.689 -69.704 
-14.970 -0.328 -77.426 
-15.005 -0.119 -77.673 
-6.820 -4.664 -65.196 
-6.704 -4.358 -65.201 
4.667 3.582 -72.219 
4.619 3.578 -72.339 
12.929 -3.029 -67.351 
12.947 -2.966 -67.485 
-8.901 -6.527 -70.058 
-8.801 -6.404 -70.019 
9.030 5.378 -67.837 
8.757 5.427 -67.928 
10.347 3.116 -74.420 
10.236 2.950 -74.607 
-9.481 0.570 -65.010 
-9.442 0.679 -65.076 
15.984 8.950 -68.138 
15.943 9.275 -68.194 
3.333 -7.061 -65.461 
3.472 -6.887 -65.569 
-3.904 -5.695 -67.770 
-3.745 -5.462 -67.740 
-3.978 -2.801 -74.229 
-4.061 -2.824 -74.354 
16.745 6.945 -67.490 
16.726 6.954 -67.568 
8.254 12.283 -68.910 
8.225 12.419 -69.009 
17.223 0.767 -69.270 
17.262 0.804 -69.232 
-10.216 -3.029 -64.801 
-10.133 -2.837 -64.731 
9.168 8.471 -74.967 
9.040 8.365 -75.171 
9.745 -11.890 -67.773 
9.769 -11.715 -67.754 
-9.769 -4.186 -71.138 
-9.937 -4.072 -71.054 
-5.412 -2.129 -63.452 
-5.402 -1.827 -63.603 
-4.090 11.786 -65.561 
-4.114 11.983 -65.708 
-3.377 -8.762 -72.970 
-3.450 -8.749 -72.968 
3.877 -1.361 -63.182 
3.892 -1.220 -63.319 
11.869 7.201 -67.043 
11.750 7.350 -67.009 
6.996 -6.181 -66.427 
7.066 -6.070 -66.420 
16.716 -1.472 -67.759 
16.740 -1.273 -67.843 
-6.636 4.381 -72.910 
-6.459 4.359 -72.908 
3.631 -11.505 -69.553 
3.562 -11.544 -69.651 
-7.948 9.465 -71.460 
-7.874 9.489 -71.494 
9.226 -1.639 -65.564 
9.206 -1.522 -65.479 
6.590 -1.316 -69.682 
6.617 -1.287 -69.837 
-1.042 -8.136 -70.774 
-1.102 -8.090 -70.969 
-12.244 5.959 -73.855 
-12.191 5.927 -73.811 
-6.174 9.604 -69.290 
-6.186 9.767 -69.479 
1.764 -10.521 -65.196 
1.976 -10.428 -65.044 
-2.119 3.178 -60.262 
-2.128 3.414 -60.335 
-3.124 10.318 -68.067 
-2.996 10.484 -68.249 
11.825 -8.363 -69.150 
11.896 -8.190 -69.189 
-8.716 -9.010 -72.455 
-8.633 -8.900 -72.348 
13.874 -1.860 -66.866 
13.840 -1.735 -67.008 
0.638 -12.307 -69.461 
0.668 -12.247 -69.342 
-1.292 5.791 -62.053 
-1.341 6.054 -61.969 
4.748 4.619 -64.734 
4.643 4.758 -64.786 
-7.204 -3.037 -71.601 
-7.342 -3.027 -71.650 
11.502 2.720 -71.174 
11.370 2.779 -71.317 
-3.102 -11.875 -77.099 
-2.963 -11.853 -77.150 
-0.585 8.911 -73.770 
-0.463 9.050 -73.844 
4.719 -11.126 -70.774 
4.661 -11.246 -70.820 
2.380 -6.496 -63.211 
2.498 -6.313 -63.114 
4.184 10.773 -69.725 
4.268 10.775 -69.989 
-14.936 0.316 -69.103 
-15.034 0.389 -69.110 
-7.281 6.461 -62.722 
-7.275 6.721 -62.766 
1.334 7.824 -70.063 
1.419 7.825 -70.119 
0.091 1.122 -71.477 
0.057 1.203 -71.619 
1.170 -9.729 -61.843 
1.142 -9.492 -61.880 
-13.870 -2.675 -71.000 
-14.002 -2.801 -71.130 
-11.979 -0.262 -67.708 
-12.089 -0.241 -67.809 
-7.764 -12.717 -67.068 
-7.534 -12.546 -66.721 
-7.953 -10.628 -70.103 
-7.859 -10.499 -70.002 
11.841 9.214 -65.758 
11.653 9.226 -65.821 
-8.884 6.900 -71.376 
-8.902 7.022 -71.389 
14.231 -8.457 -69.016 
14.207 -8.382 -69.117 
9.215 7.254 -65.741 
9.057 7.457 -65.879 
-1.196 -0.428 -63.305 
-1.219 -0.190 -63.340 
-1.662 -12.662 -68.187 
-1.600 -12.642 -68.149 
-11.807 6.415 -71.595 
-11.904 6.371 -71.483 
14.588 0.435 -69.893 
14.525 0.520 -69.938 
-5.870 7.494 -60.888 
-5.856 7.803 -61.022 
6.245 -4.341 -61.960 
6.434 -4.067 -61.975 
9.828 -6.537 -67.261 
9.926 -6.367 -67.255 
-4.535 -6.340 -71.909 
-4.538 -6.238 -71.889 
5.590 7.709 -62.689 
5.612 7.858 -62.775 
-12.811 12.418 -68.448 
-12.824 12.372 -68.446 
10.040 11.948 -68.635 
9.779 12.117 -68.753 
1.609 -2.778 -74.192 
1.616 -2.753 -74.362 
-14.524 -9.033 -71.384 
-14.585 -8.980 -71.205 
-11.925 0.766 -71.381 
[...]
POINT_DATA 1094 
SCALARS Umean double 1 
LOOKUP_TABLE default
0.05944 
0.05944 
0.09593 
0.09593 
0.11793 
0.11793 
0.09098 
0.09098 
0.04666 
0.04666 
0.03113 
0.03113 
0.02187 
0.02187 
0.06562 
0.06562 
0.03603 
0.03603 
0.09207 
0.09207 
0.04353 
0.04353 
0.07131 
0.07131 
0.08168 
0.08168 
0.05846 
0.05846 
0.04359 
0.04359 
0.10788 
0.10788 
0.08998 
0.08998 
0.06556 
0.06556 
0.09861 
0.09861 
0.03756 
0.03756 
0.06619 
0.06619 
0.10025 
0.10025 
0.08488 
0.08488 
0.13222 
0.13222 
0.03255 
0.03255 
0.15214 
0.15214 
0.06723 
0.06723 
0.03161 
0.03161 
0.05641 
0.05641 
0.09347 
0.09347 
0.04730 
0.04730 
0.04424 
0.04424 
0.08571 
0.08571 
0.05947 
0.05947 
0.07780 
0.07780 
0.13073 
0.13073 
0.09932 
0.09932 
0.11354 
0.11354 
0.12856 
0.12856 
0.06430 
0.06430 
0.04088 
0.04088 
0.03549 
0.03549 
0.07621 
0.07621 
0.09764 
0.09764 
0.08414 
0.08414 
0.05757 
0.05757 
0.02868 
0.02868 
0.06105 
0.06105 
0.04183 
0.04183 
0.07709 
0.07709 
0.05697 
0.05697 
0.08386 
0.08386 
0.05321 
0.05321 
0.05071 
0.05071 
0.06097 
0.06097 
0.09291 
0.09291 
0.01337 
0.01337 
0.10676 
0.10676 
0.05223 
0.05223 
0.10954 
0.10954 
0.07321 
0.07321 
0.10409 
0.10409 
0.03673 
0.03673 
0.03493 
0.03493 
0.12006 
0.12006 
0.10361 
0.10361 
0.13215 
0.13215 
0.02482 
0.02482 
0.16629 
0.16629 
0.13131 
0.13131 
0.10576 
0.10576 
0.13306 
0.13306 
0.06489 
0.06489 
0.14586 
0.14586 
0.16679 
0.16679 
0.06503 
0.06503 
0.11302 
0.11302 
0.11007 
0.11007 
0.09143 
0.09143 
0.03993 
0.03993 
0.08054 
0.08054 
0.20214 
0.20214 
0.10753 
0.10753 
0.12383 
0.12383 
0.08841 
0.08841 
0.09040 
0.09040 
0.07933 
0.07933 
0.03939 
0.03939 
0.08211 
0.08211 
0.12617 
0.12617 
0.06562 
0.06562 
0.16264 
0.16264 
0.04077 
0.04077 
0.17803 
0.17803 
0.10348 
0.10348 
0.12213 
0.12213 
0.07298 
0.07298 
0.13548 
0.13548 
0.08300 
0.08300 
0.10101 
0.10101 
0.02961 
0.02961 
0.08326 
0.08326 
0.09127 
0.09127 
0.08947 
0.08947 
0.06798 
0.06798 
0.11249 
0.11249 
0.09780 
0.09780 
0.08487 
0.08487 
0.07552 
0.07552 
0.06644 
0.06644 
0.08527 
0.08527 
0.07162 
0.07162 
0.10084 
0.10084 
0.11079 
0.11079 
0.08853 
0.08853 
0.17973 
0.17973 
0.13164 
0.13164 
0.11613 
0.11613 
0.11302 
0.11302 
0.10243 
0.10243 
0.12320 
0.12320 
0.04751 
0.04751 
0.05591 
0.05591 
0.12671 
0.12671 
0.09490 
0.09490 
0.09993 
0.09993 
0.04759 
0.04759 
0.10167 
0.10167 
0.13214 
0.13214 
0.10538 
0.10538 
0.15130 
0.15130 
0.06415 
0.06415 
0.10793 
0.10793 
0.12385 
0.12385 
0.05504 
0.05504 
0.06199 
0.06199 
0.11281 
0.11281 
0.05701 
0.05701 
0.02954 
0.02954 
0.08398 
0.08398 
0.12663 
0.12663 
0.03860 
0.03860 
0.04887 
0.04887 
0.16272 
0.16272 
0.16364 
0.16364 
0.06465 
0.06465 
0.07458 
0.07458 
0.08162 
0.08162 
0.14595 
0.14595 
0.13679 
0.13679 
0.06663 
0.06663 
0.16616 
0.16616 
0.12375 
0.12375 
0.14184 
0.14184 
0.07590 
0.07590 
0.04039 
0.04039 
0.08535 
0.08535 
0.03292 
0.03292 
0.11029 
0.11029 
0.13156 
0.13156 
0.08883 
0.08883 
0.10986 
0.10986 
0.16890 
0.16890 
0.12348 
0.12348 
0.03709 
0.03709 
0.09858 
0.09858 
0.09685 
0.09685 
0.06571 
0.06571 
0.10867 
0.10867 
0.08919 
0.08919 
0.06302 
0.06302 
0.04245 
0.04245 
0.07300 
0.07300 
0.07999 
0.07999 
0.10457 
0.10457 
0.03798 
0.03798 
0.12493 
0.12493 
0.13847 
0.13847 
0.12360 
0.12360 
0.13880 
0.13880 
0.09551 
0.09551 
0.08723 
0.08723 
0.09611 
0.09611 
0.06830 
0.06830 
0.14020 
0.14020 
0.09090 
0.09090 
0.07339 
0.07339 
0.10168 
0.10168 
0.07484 
0.07484 
0.09960 
0.09960 
0.07050 
0.07050 
0.11919 
0.11919 
0.13852 
0.13852 
0.06120 
0.06120 
0.13188 
0.13188 
0.05090 
0.05090 
0.08349 
0.08349 
0.12075 
0.12075 
0.11203 
0.11203 
0.07540 
0.07540 
0.22503 
0.22503 
0.09444 
0.09444 
0.09932 
0.09932 
0.06200 
0.06200 
0.06404 
0.06404 
0.14596 
0.14596 
0.12083 
0.12083 
0.03771 
0.03771 
0.07728 
0.07728 
0.05749 
0.05749 
0.16855 
0.16855 
0.16660 
0.16660 
0.09816 
0.09816 
0.05199 
0.05199 
0.08672 
0.08672 
0.02392 
0.02392 
0.16629 
0.16629 
0.08599 
0.08599 
0.09820 
0.09820 
0.03406 
0.03406 
0.14756 
0.14756 
0.13533 
0.13533 
0.09585 
0.09585 
0.07840 
0.07840 
0.07305 
0.07305 
0.07989 
0.07989 
0.14381 
0.14381 
0.07202 
0.07202 
0.10679 
0.10679 
0.03372 
0.03372 
0.06595 
0.06595 
0.07773 
0.07773 
0.07091 
0.07091 
0.06141 
0.06141 
0.05413 
0.05413 
0.06201 
0.06201 
0.07321 
0.07321 
0.15767 
0.15767 
0.07571 
0.07571 
0.16211 
0.16211 
0.13716 
0.13716 
0.08765 
0.08765 
0.16056 
0.16056 
0.03610 
0.03610 
0.09445 
0.09445 
0.06380 
0.06380 
0.12252 
0.12252 
0.07307 
0.07307 
0.09011 
0.09011 
0.07959 
0.07959 
0.10110 
0.10110 
0.10398 
0.10398 
0.06555 
0.06555 
0.07167 
0.07167 
0.14978 
0.14978 
0.10565 
0.10565 
0.09797 
0.09797 
0.13887 
0.13887 
0.15845 
0.15845 
0.10915 
0.10915 
0.07672 
0.07672 
0.09330 
0.09330 
0.20148 
0.20148 
0.05432 
0.05432 
0.06715 
0.06715 
0.17235 
0.17235 
0.11238 
0.11238 
0.21738 
0.21738 
0.05639 
0.05639 
0.09512 
0.09512 
0.03308 
0.03308 
0.07896 
0.07896 
0.07570 
0.07570 
0.06911 
0.06911 
0.26694 
0.26694 
0.08832 
0.08832 
0.13138 
0.13138 
0.07874 
0.07874 
0.06780 
0.06780 
0.06029 
0.06029 
0.09103 
0.09103 
0.11781 
0.11781 
0.09667 
0.09667 
0.05062 
0.05062 
0.14069 
0.14069 
0.04654 
0.04654 
0.07164 
0.07164 
0.13553 
0.13553 
0.11604 
0.11604 
0.09464 
0.09464 
0.03788 
0.03788 
0.06341 
0.06341 
0.03843 
0.03843 
0.06337 
0.06337 
0.19631 
0.19631 
0.03631 
0.03631 
0.05414 
0.05414 
0.13576 
0.13576 
0.08606 
0.08606 
0.11819 
0.11819 
0.11841 
0.11841 
0.09345 
0.09345 
0.08012 
0.08012 
0.13263 
0.13263 
0.08293 
0.08293 
0.11768 
0.11768 
0.05662 
0.05662 
0.13632 
0.13632 
0.05879 
0.05879 
0.02185 
0.02185 
0.07438 
0.07438 
0.05559 
0.05559 
0.06973 
0.06973 
0.05460 
0.05460 
0.07497 
0.07497 
0.05825 
0.05825 
0.07950 
0.07950 
0.09138 
0.09138 
0.03679 
0.03679 
0.09102 
0.09102 
0.08544 
0.08544 
0.07339 
0.07339 
0.15480 
0.15480 
0.08424 
0.08424 
0.10593 
0.10593 
0.09543 
0.09543 
0.07012 
0.07012 
0.04796 
0.04796 
0.08342 
0.08342 
0.03866 
0.03866 
0.09900 
0.09900 
0.10783 
0.10783 
0.13395 
0.13395 
0.12303 
0.12303 
0.05477 
0.05477 
0.18245 
0.18245 
0.13824 
0.13824 
0.14724 
0.14724 
0.06498 
0.06498 
0.09074 
0.09074 
0.08484 
0.08484 
0.09393 
0.09393 
0.12248 
0.12248 
0.07991 
0.07991 
0.13665 
0.13665 
0.08789 
0.08789 
0.06181 
0.06181 
0.05539 
0.05539 
0.09259 
0.09259 
0.11090 
0.11090 
0.08883 
0.08883 
0.16097 
0.16097 
0.06267 
0.06267 
0.12650 
0.12650 
0.10259 
0.10259 
0.02248 
0.02248 
0.08853 
0.08853 
0.05678 
0.05678 
0.08830 
0.08830 
0.07242 
0.07242 
0.14112 
0.14112 
0.07958 
0.07958 
0.12082 
0.12082 
0.02995 
0.02995 
0.06634 
0.06634 
0.09185 
0.09185 
0.12018 
0.12018 
0.11315 
0.11315 
0.17497 
0.17497 
0.07166 
0.07166 
0.14504 
0.14504 
0.12521 
0.12521 
0.09791 
0.09791 
0.07004 
0.07004 
0.08538 
0.08538 
0.16086 
0.16086 
0.05965 
0.05965 
0.07996 
0.07996 
0.07242 
0.07242 
0.10063 
0.10063 
0.13896 
0.13896 
0.02394 
0.02394 
0.08837 
0.08837 
0.05704 
0.05704 
0.06509 
0.06509 
0.06366 
0.06366 
0.07623 
0.07623 
0.11709 
0.11709 
0.05643 
0.05643 
0.12391 
0.12391 
0.11848 
0.11848 
0.07190 
0.07190 
0.08483 
0.08483 
0.13041 
0.13041 
0.05716 
0.05716 
0.08187 
0.08187 
0.07531 
0.07531 
0.08594 
0.08594 
0.08920 
0.08920 
0.12074 
0.12074 
0.11154 
0.11154 
0.09212 
0.09212 
0.12019 
0.12019 
0.16001 
0.16001 
0.13744 
0.13744 
0.11971 
0.11971 
0.08873 
0.08873 
0.04669 
0.04669 
0.02496 
0.02496 
0.12841 
0.12841 
0.05581 
0.05581 
0.09002 
0.09002 
0.13118 
0.13118 
0.07682 
0.07682 
0.13911 
0.13911 
0.16191 
0.16191 
0.15505 
0.15505 
0.06976 
0.06976 
0.04874 
0.04874 
0.18614 
0.18614 
0.17631 
0.17631 
0.18897 
0.18897 
0.11713 
0.11713 
0.10636 
0.10636 
0.12929 
0.12929 
0.06646 
0.06646 
0.05445 
0.05445 
0.06488 
0.06488 
0.08664 
0.08664 
0.03907 
0.03907 
0.09425 
0.09425 
0.04463 
0.04463 
0.10782 
0.10782 
0.08215 
0.08215 
0.13876 
0.13876 
0.06959 
0.06959 
0.18967 
0.18967 
0.12242 
0.12242 
0.10227 
0.10227 
0.09273 
0.09273 
0.07449 
0.07449 
0.12748 
0.12748 
0.06703 
0.06703 
0.08443 
0.08443 
0.11704 
0.11704 
0.03022 
0.03022 
0.10021 
0.10021 
0.09413 
0.09413 
0.09935 
0.09935 
0.09223 
0.09223 
0.09966 
0.09966 
0.06658 
0.06658 
0.09968 
0.09968 
0.08582 
0.08582 
0.13006 
0.13006 
0.13734 
0.13734 
0.14398 
0.14398 
0.11316 
0.11316 
0.11031 
0.11031 
0.06327 
0.06327 
0.09512 
0.09512 
0.17093 
0.17093 
0.05050 
0.05050 
0.13595 
0.13595 
0.15690 
0.15690 
0.10452 
0.10452 
0.08295 
0.08295 
0.06409 
0.06409 
0.19464 
0.19464 
0.09759 
0.09759 
0.01335 
0.01335 
0.22960 
0.22960 
0.10739 
0.10739 
0.19200 
0.19200 
0.02446 
0.02446 
0.15255 
0.15255 
0.13687 
0.13687 
0.19881 
0.19881 
0.09627 
0.09627 
0.06463 
0.06463 
0.16599 
0.16599 
0.10856 
0.10856 
0.08502 
0.08502 
0.04592 
0.04592 
0.04002 
0.04002 
0.02819 
0.02819 
0.12015 
0.12015 
0.08717 
0.08717 
0.05739 
0.05739 
0.04235 
0.04235 
0.07120 
0.07120 
0.06244 
0.06244 
0.13694 
0.13694 
0.09635 
0.09635 
0.13819 
0.13819 
0.05022 
0.05022 
0.11107 
0.11107 
0.16094 
0.16094 
0.04155 
0.04155 
0.16466 
0.16466 
0.04232 
0.04232 
0.03387 
0.03387 
0.12294 
0.12294 
0.06816 
0.06816 
0.11719 
0.11719 
0.07368 
0.07368 
0.16550 
0.16550 
0.07822 
0.07822 
0.03886 
0.03886 
0.07499 
0.07499 
0.11955 
0.11955 
0.07124 
0.07124 
0.03495 
0.03495 
0.06189 
0.06189 
0.10945 
0.10945 
0.05805 
0.05805 
0.11707 
0.11707 
0.05477 
0.05477 
0.11064 
0.11064 
0.10545 
0.10545 
0.06864 
0.06864 
0.07613 
0.07613 
0.11784 
0.11784 
0.05687 
0.05687 
0.10066 
0.10066 
0.07379 
0.07379 
0.06897 
0.06897 
0.07282 
0.07282 
0.07799 
0.07799 
0.04678 
0.04678 
0.06333 
0.06333 
0.13282 
0.13282 
0.09293 
0.09293 
0.05817 
0.05817 
0.11095 
0.11095 
0.12692 
0.12692 
0.09786 
0.09786 
0.12650 
0.12650 
0.19080 
0.19080 
0.04515 
0.04515 
0.09569 
0.09569 
0.17768 
0.17768 
0.12537 
0.12537 
0.07006 
0.07006 
0.05975 
0.05975 
0.09685 
0.09685 
0.10569 
0.10569 
SCALARS Umean_X double 1 
LOOKUP_TABLE default
-0.04050 
-0.04050 
-0.05200 
-0.05200 
-0.00350 
-0.00350 
-0.06400 
-0.06400 
0.01150 
0.01150 
0.01700 
0.01700 
0.01750 
0.01750 
-0.05750 
-0.05750 
-0.01700 
-0.01700 
-0.00300 
-0.00300 
-0.00400 
-0.00400 
-0.05200 
-0.05200 
0.03850 
0.03850 
0.04500 
0.04500 
-0.02700 
-0.02700 
-0.00250 
-0.00250 
-0.03750 
-0.03750 
-0.03100 
-0.03100 
-0.05500 
-0.05500 
-0.01250 
-0.01250 
-0.03250 
-0.03250 
-0.07550 
-0.07550 
0.00800 
0.00800 
0.00300 
0.00300 
-0.02650 
-0.02650 
0.00750 
0.00750 
-0.05800 
-0.05800 
0.00550 
0.00550 
0.00800 
0.00800 
0.05500 
0.05500 
0.00100 
0.00100 
0.03100 
0.03100 
-0.02700 
-0.02700 
0.03400 
0.03400 
-0.05350 
-0.05350 
-0.02100 
-0.02100 
0.02150 
0.02150 
-0.05050 
-0.05050 
-0.01650 
-0.01650 
0.01450 
0.01450 
-0.01950 
-0.01950 
-0.02850 
-0.02850 
-0.01450 
-0.01450 
-0.00450 
-0.00450 
-0.01050 
-0.01050 
-0.00350 
-0.00350 
0.02650 
0.02650 
0.01450 
0.01450 
-0.03900 
-0.03900 
-0.04650 
-0.04650 
-0.04350 
-0.04350 
0.02650 
0.02650 
0.04000 
0.04000 
-0.03450 
-0.03450 
0.03100 
0.03100 
0.01450 
0.01450 
-0.01250 
-0.01250 
-0.07200 
-0.07200 
0.01900 
0.01900 
0.07600 
0.07600 
-0.05300 
-0.05300 
0.03900 
0.03900 
0.00900 
0.00900 
-0.00600 
-0.00600 
0.00700 
0.00700 
-0.00850 
-0.00850 
0.02450 
0.02450 
0.01150 
0.01150 
0.04700 
0.04700 
-0.10950 
-0.10950 
-0.02550 
-0.02550 
-0.08300 
-0.08300 
0.00400 
0.00400 
0.03200 
0.03200 
-0.04900 
-0.04900 
-0.04450 
-0.04450 
0.00750 
0.00750 
-0.01450 
-0.01450 
-0.08500 
-0.08500 
-0.02450 
-0.02450 
-0.00050 
-0.00050 
-0.03850 
-0.03850 
0.03800 
0.03800 
-0.06750 
-0.06750 
-0.05350 
-0.05350 
0.02250 
0.02250 
-0.03750 
-0.03750 
0.01200 
0.01200 
-0.01100 
-0.01100 
0.05050 
0.05050 
-0.06450 
-0.06450 
0.10600 
0.10600 
0.02500 
0.02500 
0.03350 
0.03350 
0.00250 
0.00250 
0.04350 
0.04350 
0.05800 
0.05800 
0.05500 
0.05500 
0.05400 
0.05400 
-0.01850 
-0.01850 
0.01200 
0.01200 
-0.07450 
-0.07450 
-0.05500 
-0.05500 
0.02000 
0.02000 
-0.01950 
-0.01950 
0.01150 
0.01150 
0.03850 
0.03850 
0.03900 
0.03900 
0.00850 
0.00850 
-0.00450 
-0.00450 
-0.02200 
-0.02200 
-0.02500 
-0.02500 
-0.07800 
-0.07800 
-0.00800 
-0.00800 
0.04900 
0.04900 
0.02800 
0.02800 
-0.10200 
-0.10200 
-0.07550 
-0.07550 
0.04250 
0.04250 
0.03100 
0.03100 
0.09350 
0.09350 
-0.02400 
-0.02400 
-0.03300 
-0.03300 
0.09150 
0.09150 
-0.00700 
-0.00700 
-0.01400 
-0.01400 
-0.01200 
-0.01200 
0.03700 
0.03700 
0.01800 
0.01800 
0.02950 
0.02950 
-0.07850 
-0.07850 
0.01050 
0.01050 
-0.02550 
-0.02550 
0.04900 
0.04900 
0.00900 
0.00900 
-0.02500 
-0.02500 
0.03100 
0.03100 
0.00050 
0.00050 
-0.00250 
-0.00250 
-0.02000 
-0.02000 
0.05000 
0.05000 
0.03100 
0.03100 
-0.03650 
-0.03650 
-0.01750 
-0.01750 
0.05800 
0.05800 
-0.02400 
-0.02400 
0.00900 
0.00900 
0.05000 
0.05000 
-0.13650 
-0.13650 
-0.05550 
-0.05550 
0.01950 
0.01950 
-0.02050 
-0.02050 
0.06950 
0.06950 
0.07950 
0.07950 
-0.04150 
-0.04150 
-0.00950 
-0.00950 
-0.01450 
-0.01450 
0.01950 
0.01950 
0.04150 
0.04150 
-0.06400 
-0.06400 
0.01200 
0.01200 
-0.08400 
-0.08400 
0.00500 
0.00500 
-0.01200 
-0.01200 
-0.03650 
-0.03650 
0.00750 
0.00750 
-0.05950 
-0.05950 
0.03500 
0.03500 
0.01200 
0.01200 
0.08850 
0.08850 
-0.03450 
-0.03450 
0.03700 
0.03700 
-0.01000 
-0.01000 
0.01350 
0.01350 
-0.03000 
-0.03000 
0.02650 
0.02650 
-0.00600 
-0.00600 
0.10600 
0.10600 
-0.00450 
-0.00450 
0.06400 
0.06400 
0.03550 
0.03550 
0.04150 
0.04150 
-0.01700 
-0.01700 
0.01500 
0.01500 
-0.02450 
-0.02450 
-0.05250 
-0.05250 
-0.06900 
-0.06900 
-0.06600 
-0.06600 
0.06950 
0.06950 
0.06100 
0.06100 
-0.02900 
-0.02900 
0.05900 
0.05900 
0.04200 
0.04200 
-0.04900 
-0.04900 
0.00300 
0.00300 
0.04250 
0.04250 
-0.01700 
-0.01700 
-0.01400 
-0.01400 
-0.06600 
-0.06600 
-0.05500 
-0.05500 
0.11500 
0.11500 
0.04700 
0.04700 
-0.09400 
-0.09400 
-0.00900 
-0.00900 
-0.01200 
-0.01200 
-0.07900 
-0.07900 
-0.01150 
-0.01150 
0.03100 
0.03100 
-0.04850 
-0.04850 
-0.03150 
-0.03150 
0.00700 
0.00700 
0.09450 
0.09450 
0.04900 
0.04900 
-0.00150 
-0.00150 
0.01100 
0.01100 
-0.00650 
-0.00650 
-0.13050 
-0.13050 
0.00350 
0.00350 
-0.03050 
-0.03050 
-0.00200 
-0.00200 
0.06500 
0.06500 
-0.00100 
-0.00100 
-0.06050 
-0.06050 
-0.04650 
-0.04650 
-0.01550 
-0.01550 
0.01600 
0.01600 
-0.00800 
-0.00800 
-0.02100 
-0.02100 
-0.03000 
-0.03000 
0.00100 
0.00100 
-0.00150 
-0.00150 
-0.03250 
-0.03250 
-0.03900 
-0.03900 
-0.04750 
-0.04750 
0.01550 
0.01550 
-0.02850 
-0.02850 
0.01600 
0.01600 
0.08250 
0.08250 
0.01900 
0.01900 
-0.09950 
-0.09950 
0.01550 
0.01550 
0.01300 
0.01300 
0.01350 
0.01350 
0.00800 
0.00800 
-0.09250 
-0.09250 
0.00100 
0.00100 
-0.07850 
-0.07850 
0.00750 
0.00750 
-0.03400 
-0.03400 
0.00250 
0.00250 
0.00750 
0.00750 
-0.08100 
-0.08100 
0.03300 
0.03300 
0.03700 
0.03700 
-0.02850 
-0.02850 
0.01550 
0.01550 
0.06450 
0.06450 
-0.12250 
-0.12250 
-0.02500 
-0.02500 
-0.10600 
-0.10600 
-0.03800 
-0.03800 
-0.00200 
-0.00200 
-0.08200 
-0.08200 
0.01450 
0.01450 
-0.04650 
-0.04650 
0.13850 
0.13850 
-0.00850 
-0.00850 
-0.03150 
-0.03150 
-0.03050 
-0.03050 
0.05450 
0.05450 
-0.03050 
-0.03050 
-0.03700 
-0.03700 
-0.01950 
-0.01950 
-0.06200 
-0.06200 
0.02200 
0.02200 
0.00700 
0.00700 
-0.05800 
-0.05800 
0.00400 
0.00400 
-0.02700 
-0.02700 
0.04150 
0.04150 
0.03500 
0.03500 
0.02450 
0.02450 
0.01600 
0.01600 
0.01100 
0.01100 
0.04100 
0.04100 
-0.02050 
-0.02050 
0.01000 
0.01000 
-0.11650 
-0.11650 
-0.09300 
-0.09300 
0.05600 
0.05600 
0.01050 
0.01050 
-0.05700 
-0.05700 
0.01000 
0.01000 
0.01150 
0.01150 
0.02300 
0.02300 
-0.02250 
-0.02250 
0.04050 
0.04050 
-0.00650 
-0.00650 
-0.02200 
-0.02200 
0.10550 
0.10550 
-0.00900 
-0.00900 
-0.00850 
-0.00850 
-0.06850 
-0.06850 
-0.00750 
-0.00750 
-0.07300 
-0.07300 
-0.10150 
-0.10150 
0.03250 
0.03250 
0.07400 
0.07400 
-0.01750 
-0.01750 
-0.02150 
-0.02150 
-0.04600 
-0.04600 
0.02750 
0.02750 
-0.06350 
-0.06350 
-0.00950 
-0.00950 
-0.03950 
-0.03950 
0.04950 
0.04950 
-0.07400 
-0.07400 
-0.02650 
-0.02650 
-0.03250 
-0.03250 
-0.01850 
-0.01850 
0.01800 
0.01800 
0.01400 
0.01400 
0.01150 
0.01150 
0.04400 
0.04400 
-0.03550 
-0.03550 
-0.00900 
-0.00900 
0.02350 
0.02350 
0.00950 
0.00950 
-0.05950 
-0.05950 
0.03150 
0.03150 
0.09550 
0.09550 
-0.05700 
-0.05700 
-0.05250 
-0.05250 
-0.01350 
-0.01350 
-0.04600 
-0.04600 
0.04400 
0.04400 
0.02200 
0.02200 
-0.00450 
-0.00450 
0.01250 
0.01250 
-0.02750 
-0.02750 
-0.04000 
-0.04000 
-0.08150 
-0.08150 
-0.01100 
-0.01100 
-0.07500 
-0.07500 
-0.05400 
-0.05400 
0.05000 
0.05000 
0.03800 
0.03800 
-0.01050 
-0.01050 
-0.00150 
-0.00150 
0.03700 
0.03700 
0.02800 
0.02800 
-0.05900 
-0.05900 
-0.01800 
-0.01800 
0.05750 
0.05750 
-0.03600 
-0.03600 
0.01200 
0.01200 
-0.03150 
-0.03150 
0.03550 
0.03550 
0.05800 
0.05800 
0.01150 
0.01150 
-0.01300 
-0.01300 
-0.00850 
-0.00850 
-0.01850 
-0.01850 
-0.02900 
-0.02900 
0.03300 
0.03300 
-0.08850 
-0.08850 
0.06950 
0.06950 
-0.07900 
-0.07900 
0.11450 
0.11450 
-0.00250 
-0.00250 
0.02550 
0.02550 
-0.00200 
-0.00200 
-0.00950 
-0.00950 
0.04850 
0.04850 
-0.01400 
-0.01400 
0.02900 
0.02900 
-0.01400 
-0.01400 
0.06400 
0.06400 
-0.04850 
-0.04850 
0.03850 
0.03850 
0.11150 
0.11150 
-0.00000 
-0.00000 
-0.06950 
-0.06950 
0.02600 
0.02600 
0.01450 
0.01450 
0.01100 
0.01100 
0.00750 
0.00750 
-0.05700 
-0.05700 
-0.03450 
-0.03450 
-0.06150 
-0.06150 
-0.01250 
-0.01250 
0.00200 
0.00200 
0.06350 
0.06350 
-0.04950 
-0.04950 
-0.04300 
-0.04300 
0.04350 
0.04350 
0.01250 
0.01250 
0.04550 
0.04550 
0.03000 
0.03000 
-0.00750 
-0.00750 
0.11100 
0.11100 
0.03300 
0.03300 
0.07700 
0.07700 
0.00800 
0.00800 
0.10800 
0.10800 
0.06300 
0.06300 
0.03050 
0.03050 
0.02750 
0.02750 
-0.00200 
-0.00200 
-0.03700 
-0.03700 
-0.02250 
-0.02250 
0.06100 
0.06100 
-0.02350 
-0.02350 
-0.00950 
-0.00950 
0.05750 
0.05750 
0.06550 
0.06550 
0.01400 
0.01400 
-0.04150 
-0.04150 
0.02900 
0.02900 
0.06850 
0.06850 
0.10650 
0.10650 
0.07400 
0.07400 
-0.05750 
-0.05750 
0.02050 
0.02050 
-0.00900 
-0.00900 
0.01750 
0.01750 
-0.02700 
-0.02700 
-0.01800 
-0.01800 
0.02550 
0.02550 
-0.01850 
-0.01850 
0.01450 
0.01450 
0.01900 
0.01900 
0.04850 
0.04850 
0.02600 
0.02600 
-0.06250 
-0.06250 
0.03250 
0.03250 
0.03500 
0.03500 
0.04500 
0.04500 
0.02800 
0.02800 
-0.01850 
-0.01850 
0.00650 
0.00650 
-0.11350 
-0.11350 
-0.03650 
-0.03650 
0.00900 
0.00900 
0.07200 
0.07200 
-0.01100 
-0.01100 
0.05300 
0.05300 
0.00400 
0.00400 
0.06550 
0.06550 
0.03500 
0.03500 
-0.04700 
-0.04700 
-0.00400 
-0.00400 
0.06550 
0.06550 
0.01500 
0.01500 
0.10100 
0.10100 
0.02900 
0.02900 
0.06100 
0.06100 
-0.03000 
-0.03000 
-0.05650 
-0.05650 
0.00650 
0.00650 
-0.03350 
-0.03350 
0.02600 
0.02600 
-0.00950 
-0.00950 
0.03450 
0.03450 
0.09200 
0.09200 
-0.05750 
-0.05750 
0.02650 
0.02650 
-0.01250 
-0.01250 
0.08500 
0.08500 
0.01350 
0.01350 
-0.01050 
-0.01050 
0.12200 
0.12200 
0.09650 
0.09650 
0.08350 
0.08350 
-0.00400 
-0.00400 
-0.04550 
-0.04550 
-0.00700 
-0.00700 
-0.06450 
-0.06450 
-0.05650 
-0.05650 
0.02250 
0.02250 
0.03100 
0.03100 
0.05750 
0.05750 
0.07100 
0.07100 
0.00200 
0.00200 
-0.01100 
-0.01100 
-0.01850 
-0.01850 
-0.05100 
-0.05100 
-0.02850 
-0.02850 
-0.04300 
-0.04300 
0.00150 
0.00150 
-0.05500 
-0.05500 
-0.05000 
-0.05000 
-0.06500 
-0.06500 
0.08300 
0.08300 
-0.02750 
-0.02750 
0.04050 
0.04050 
-0.01800 
-0.01800 
-0.03300 
-0.03300 
0.03500 
0.03500 
-0.06100 
-0.06100 
-0.03450 
-0.03450 
0.00900 
0.00900 
0.02150 
0.02150 
-0.04700 
-0.04700 
0.05150 
0.05150 
-0.03550 
-0.03550 
-0.13550 
-0.13550 
-0.05650 
-0.05650 
0.01150 
0.01150 
0.04850 
0.04850 
-0.09900 
-0.09900 
0.04750 
0.04750 
0.00550 
0.00550 
-0.03000 
-0.03000 
0.00750 
0.00750 
0.03100 
0.03100 
-0.01700 
-0.01700 
0.00150 
0.00150 
0.01500 
0.01500 
0.04950 
0.04950 
0.01500 
0.01500 
-0.06550 
-0.06550 
-0.03800 
-0.03800 
-0.05150 
-0.05150 
0.00950 
0.00950 
0.00100 
0.00100 
0.01950 
0.01950 
-0.03450 
-0.03450 