# vtk DataFile Version 2.1 
Trajects from timestep 22 with color option 
ASCII 
 
DATASET POLYDATA POINTS 1018 float 
-6.667 5.926 -72.168 
-6.592 6.028 -72.273 
-0.969 3.882 -67.775 
-0.981 3.985 -67.913 
9.559 7.121 -70.731 
9.366 7.217 -70.808 
1.589 6.137 -71.924 
1.506 6.090 -72.084 
2.895 1.639 -72.516 
2.798 1.640 -72.635 
-1.398 -7.709 -73.662 
-1.446 -7.657 -73.635 
-2.004 -3.678 -69.264 
-1.920 -3.433 -69.303 
7.135 -2.183 -73.197 
7.181 -2.263 -73.328 
3.125 8.774 -72.485 
3.137 8.705 -72.700 
-11.324 -3.739 -75.314 
-11.366 -3.807 -75.304 
0.083 4.852 -68.961 
0.012 4.943 -69.083 
-5.108 -2.638 -72.273 
-5.098 -2.522 -72.316 
-7.460 -5.314 -70.602 
-7.456 -5.216 -70.599 
-8.041 11.221 -71.985 
-8.090 11.147 -72.123 
10.513 7.844 -71.611 
10.296 7.858 -71.699 
-6.671 -7.125 -67.147 
-6.629 -6.825 -67.065 
3.800 8.311 -66.904 
3.644 8.420 -67.066 
3.157 -8.525 -72.601 
3.101 -8.460 -72.576 
-4.952 -3.630 -69.494 
-4.787 -3.444 -69.556 
10.403 2.618 -70.569 
10.332 2.667 -70.656 
11.592 7.209 -68.799 
11.435 7.278 -68.910 
6.053 -4.207 -72.451 
6.171 -4.244 -72.606 
-1.517 8.608 -70.291 
-1.655 8.612 -70.458 
-2.865 -2.594 -71.535 
-2.939 -2.416 -71.589 
-6.638 9.256 -70.806 
-6.638 9.385 -70.758 
2.993 5.575 -67.982 
2.848 5.710 -68.024 
-4.198 -7.689 -71.023 
-4.218 -7.489 -71.170 
-0.880 6.288 -69.610 
-0.979 6.359 -69.736 
3.792 8.087 -72.343 
3.795 8.043 -72.447 
-2.034 10.075 -69.101 
-2.053 10.119 -69.244 
0.988 3.169 -67.422 
1.043 3.277 -67.529 
5.018 5.081 -69.218 
4.848 5.121 -69.251 
5.378 1.460 -67.502 
5.366 1.492 -67.538 
1.584 1.419 -67.978 
1.601 1.529 -68.135 
-1.879 9.330 -72.790 
-1.878 9.347 -73.034 
4.902 4.142 -71.536 
4.786 4.156 -71.641 
-0.226 -10.926 -72.120 
-0.110 -10.792 -72.170 
-1.057 1.318 -69.210 
-1.053 1.477 -69.375 
-2.495 0.556 -67.422 
-2.462 0.830 -67.536 
5.053 2.877 -65.863 
5.101 2.992 -65.884 
-3.987 -4.517 -71.238 
-3.916 -4.424 -71.198 
-0.704 9.489 -70.585 
-0.726 9.483 -70.702 
-2.063 6.530 -69.996 
-2.122 6.743 -70.237 
-16.036 -3.324 -72.639 
-16.236 -3.234 -72.590 
-3.622 6.000 -71.128 
-3.719 6.120 -71.237 
-10.252 5.553 -67.000 
-10.318 5.600 -67.067 
1.963 -3.450 -70.937 
2.038 -3.334 -71.027 
-3.839 4.936 -67.987 
-3.829 5.180 -68.026 
9.357 -0.652 -71.515 
9.265 -0.624 -71.631 
0.871 -7.386 -71.263 
0.801 -7.361 -71.220 
-10.164 -7.259 -68.597 
-9.966 -7.134 -68.230 
-9.442 7.874 -75.302 
-9.540 7.869 -75.301 
-10.729 -1.444 -67.647 
-10.812 -1.307 -67.621 
-9.513 -7.364 -71.440 
-9.495 -7.379 -71.191 
2.680 3.067 -68.576 
2.685 3.176 -68.705 
-3.594 0.089 -67.892 
-3.514 0.389 -67.923 
-8.449 -4.544 -69.907 
-8.512 -4.505 -69.875 
6.138 9.063 -69.889 
5.872 9.038 -69.990 
0.771 5.397 -70.549 
0.643 5.448 -70.669 
-0.938 10.496 -68.360 
-0.946 10.516 -68.472 
-8.956 8.494 -72.621 
-8.952 8.549 -72.722 
-1.576 -1.541 -68.937 
-1.482 -1.345 -69.073 
12.695 12.471 -68.711 
12.496 12.606 -68.686 
-6.877 10.908 -68.240 
-6.940 11.063 -68.342 
6.529 -6.508 -67.956 
6.628 -6.376 -68.012 
12.294 0.817 -70.459 
12.263 0.908 -70.704 
-10.287 2.663 -70.402 
-10.350 2.594 -70.533 
-1.044 9.933 -66.724 
-1.146 10.046 -66.785 
14.572 3.786 -72.210 
14.465 3.920 -72.241 
-7.049 -5.493 -66.553 
-7.020 -5.133 -66.410 
-3.239 12.415 -70.196 
-3.112 12.570 -70.362 
12.413 -5.676 -69.739 
12.378 -5.589 -69.727 
5.532 9.055 -67.042 
5.377 9.112 -67.084 
4.349 1.272 -65.637 
4.345 1.421 -65.793 
7.738 0.608 -67.324 
7.810 0.722 -67.417 
-9.988 3.915 -68.873 
-10.004 3.792 -69.065 
-2.655 11.955 -66.378 
-2.535 12.098 -66.490 
0.445 -12.095 -69.355 
0.579 -11.981 -69.398 
-2.939 -6.802 -72.781 
-3.062 -6.729 -72.824 
-5.193 -3.570 -71.860 
-5.159 -3.434 -71.850 
7.603 5.943 -76.403 
7.503 5.857 -76.615 
0.707 -6.442 -76.573 
0.670 -6.560 -76.730 
-10.579 -2.909 -75.406 
-10.617 -2.969 -75.496 
-8.200 3.840 -66.347 
-8.136 4.036 -66.474 
-9.347 -8.671 -71.673 
-9.312 -8.556 -71.315 
-12.792 12.154 -73.222 
-12.884 12.157 -73.203 
-15.475 7.697 -75.082 
-15.497 7.576 -75.144 
4.461 6.010 -67.591 
4.335 6.127 -67.538 
-11.069 4.393 -67.531 
-11.147 4.363 -67.643 
-12.859 10.247 -74.001 
-12.948 10.272 -73.934 
10.214 4.311 -67.552 
10.140 4.425 -67.640 
17.340 2.014 -70.135 
17.347 2.119 -70.274 
-10.063 0.601 -67.456 
-10.050 0.718 -67.555 
5.088 10.321 -71.813 
4.959 10.337 -71.959 
-7.747 -1.020 -65.098 
-7.730 -0.852 -65.041 
3.498 -6.259 -67.394 
3.659 -6.086 -67.540 
8.366 10.846 -67.795 
8.378 10.886 -67.926 
-3.868 -1.936 -74.196 
-3.929 -1.971 -74.346 
-4.279 1.518 -61.101 
-4.323 1.717 -61.074 
2.650 0.273 -76.354 
2.653 0.241 -76.462 
-7.797 -11.929 -67.600 
-7.747 -11.666 -67.407 
-6.867 -1.482 -73.710 
-6.934 -1.409 -73.795 
9.273 0.860 -65.437 
9.286 1.001 -65.471 
-1.006 6.075 -61.533 
-1.007 6.267 -61.600 
5.683 11.645 -66.502 
5.769 11.756 -66.527 
7.590 7.380 -66.970 
7.522 7.497 -67.097 
14.002 8.536 -73.975 
13.787 8.777 -74.069 
-11.869 3.215 -68.494 
-11.930 3.117 -68.584 
-11.851 -4.729 -68.270 
-11.757 -4.490 -68.172 
-2.801 8.218 -71.718 
-2.880 8.387 -71.891 
3.746 -3.871 -67.205 
3.918 -3.669 -67.263 
-12.804 6.387 -68.658 
-12.882 6.310 -68.627 
-6.691 -8.590 -67.921 
-6.691 -8.380 -67.911 
14.386 1.719 -72.233 
14.318 1.809 -72.377 
2.012 -2.547 -77.161 
2.028 -2.551 -77.375 
-4.058 -5.391 -66.138 
-3.837 -5.120 -66.149 
-3.330 -4.158 -76.613 
-3.355 -4.203 -76.658 
-6.896 -11.063 -67.908 
-6.709 -10.963 -67.771 
6.943 12.363 -67.375 
7.009 12.398 -67.497 
-11.239 -1.048 -70.681 
-11.251 -1.090 -70.810 
-12.486 10.205 -65.891 
-12.509 10.180 -65.864 
-7.306 -2.125 -70.655 
-7.271 -2.218 -70.663 
12.388 2.331 -62.128 
12.334 2.586 -62.098 
6.935 2.704 -72.004 
6.820 2.764 -72.120 
2.157 12.484 -64.727 
2.266 12.621 -64.913 
11.441 4.261 -70.266 
11.288 4.354 -70.241 
-11.217 3.149 -62.829 
-11.234 3.333 -62.927 
4.695 1.658 -73.966 
4.609 1.673 -74.167 
-10.290 -9.604 -68.074 
-10.252 -9.404 -67.838 
-2.214 9.003 -69.182 
-2.313 9.151 -69.342 
-14.557 -2.284 -73.022 
-14.668 -2.282 -73.087 
-6.002 3.827 -64.124 
-6.003 4.199 -64.183 
5.753 -12.089 -66.585 
5.861 -12.071 -66.640 
-9.300 -10.620 -71.624 
-9.220 -10.448 -71.806 
2.676 5.253 -62.576 
2.633 5.463 -62.659 
15.738 0.672 -70.963 
15.697 0.815 -71.107 
10.352 -5.347 -67.836 
10.446 -5.139 -67.861 
-6.312 -0.026 -70.156 
-6.304 0.067 -70.132 
-7.771 4.179 -63.640 
-7.718 4.403 -63.698 
-4.397 -5.718 -74.940 
-4.432 -5.656 -74.981 
-13.110 1.765 -69.708 
-13.167 1.779 -69.757 
1.395 -12.136 -76.004 
1.512 -12.008 -75.994 
-10.244 6.041 -62.393 
-10.201 6.189 -62.420 
12.967 -2.195 -68.980 
12.979 -2.188 -69.074 
9.229 -9.376 -68.839 
9.281 -9.233 -68.905 
-5.527 2.742 -62.491 
-5.500 3.055 -62.515 
2.903 6.822 -65.706 
2.812 6.964 -65.745 
-3.240 -11.230 -77.589 
-3.104 -11.178 -77.511 
4.313 1.142 -71.146 
4.309 1.192 -71.317 
-10.325 -7.083 -69.836 
-10.314 -6.838 -69.647 
-9.312 -11.999 -66.612 
-9.305 -12.018 -66.660 
-11.085 -4.777 -70.115 
-11.067 -4.747 -70.039 
4.793 -6.694 -63.969 
4.950 -6.548 -63.838 
5.852 11.818 -69.289 
5.823 11.838 -69.367 
14.306 -7.514 -72.137 
14.343 -7.376 -72.272 
12.711 10.313 -68.029 
12.645 10.400 -68.185 
16.573 -3.548 -73.138 
16.535 -3.483 -73.139 
8.987 2.812 -65.030 
9.040 2.994 -65.117 
-13.900 -4.885 -75.322 
-14.025 -4.828 -75.271 
12.530 -4.759 -71.563 
12.577 -4.753 -71.572 
10.480 2.530 -68.962 
10.318 2.490 -68.994 
-6.625 12.482 -63.508 
-6.563 12.777 -63.425 
2.454 -10.915 -62.608 
2.526 -10.775 -62.781 
13.599 -6.483 -71.095 
13.649 -6.311 -71.220 
-7.270 4.609 -73.033 
-7.194 4.607 -72.982 
9.957 -0.354 -69.113 
9.988 -0.250 -69.230 
-4.264 10.878 -62.643 
-4.217 11.160 -62.834 
4.998 -8.075 -63.601 
5.054 -7.938 -63.538 
11.522 -4.547 -73.754 
11.636 -4.610 -73.771 
-5.372 4.740 -64.584 
-5.326 5.135 -64.642 
1.038 -1.083 -65.603 
1.065 -0.813 -65.676 
1.714 -6.642 -67.745 
1.882 -6.418 -67.795 
2.094 -4.456 -63.763 
2.216 -4.203 -63.912 
2.864 8.329 -63.015 
2.795 8.561 -62.969 
-0.447 5.205 -63.111 
-0.488 5.347 -63.076 
-13.672 8.658 -71.224 
-13.614 8.631 -71.203 
2.737 11.842 -65.404 
2.762 11.934 -65.424 
-10.681 2.618 -67.977 
-10.690 2.537 -68.105 
0.353 1.698 -68.110 
0.392 1.844 -68.205 
-7.204 11.903 -71.971 
-7.324 11.958 -72.114 
4.691 6.014 -63.307 
4.623 6.121 -63.312 
-7.401 10.334 -72.540 
-7.422 10.356 -72.569 
8.128 9.632 -70.034 
7.985 9.669 -70.107 
-7.170 -6.867 -67.467 
-7.080 -6.643 -67.304 
3.874 4.372 -66.130 
3.863 4.579 -66.181 
10.241 5.595 -73.384 
10.075 5.626 -73.494 
4.605 -7.321 -70.339 
4.627 -7.250 -70.485 
8.889 -12.005 -69.977 
9.006 -11.898 -70.038 
-11.678 0.637 -75.623 
-11.807 0.729 -75.640 
-11.551 0.651 -71.999 
-11.559 0.646 -72.023 
-11.076 9.543 -71.097 
-11.099 9.472 -71.133 
-10.521 -3.617 -68.310 
-10.497 -3.375 -68.222 
-14.542 6.090 -68.153 
-14.617 5.962 -68.076 
10.059 12.850 -66.567 
10.141 12.856 -66.626 
-2.940 10.949 -62.301 
-2.803 11.157 -62.538 
8.943 -9.244 -69.406 
8.980 -9.175 -69.470 
-3.241 12.033 -62.776 
-3.126 12.276 -63.003 
-11.613 -5.597 -64.791 
-11.434 -5.498 -64.727 
14.150 12.663 -69.989 
13.959 12.879 -70.017 
14.885 -7.305 -66.074 
14.971 -7.039 -66.119 
-8.946 -1.377 -64.937 
-8.933 -1.219 -64.879 
-8.331 -2.592 -62.505 
-8.181 -2.426 -62.572 
11.804 -3.835 -64.310 
11.904 -3.650 -64.423 
11.701 11.538 -67.657 
11.578 11.576 -67.811 
5.371 -5.596 -71.057 
5.317 -5.554 -71.120 
7.763 -2.350 -68.641 
7.826 -2.231 -68.754 
-3.908 5.111 -61.129 
-3.899 5.327 -61.275 
-5.952 0.854 -72.722 
-5.969 0.811 -72.753 
3.726 -11.778 -73.334 
3.813 -11.706 -73.312 
-3.952 -6.556 -62.927 
-3.787 -6.282 -62.990 
2.315 -1.048 -61.931 
2.448 -0.781 -61.940 
-7.944 0.226 -62.373 
-7.885 0.532 -62.504 
-11.946 -6.500 -71.657 
-11.999 -6.397 -71.407 
3.815 -11.765 -71.813 
3.850 -11.805 -71.884 
8.955 -7.763 -63.352 
9.001 -7.447 -63.480 
10.650 -8.551 -67.885 
10.742 -8.365 -67.909 
5.312 9.333 -74.400 
5.322 9.272 -74.652 
-9.463 2.529 -65.514 
-9.429 2.748 -65.668 
-7.189 8.751 -74.397 
-7.117 8.841 -74.434 
-13.171 -8.664 -67.579 
-13.217 -8.466 -67.424 
[...]
POINT_DATA 1018 
SCALARS Umean double 1 
LOOKUP_TABLE default
0.08224 
0.08224 
0.08631 
0.08631 
0.11445 
0.11445 
0.09314 
0.09314 
0.07676 
0.07676 
0.03787 
0.03787 
0.13096 
0.13096 
0.08012 
0.08012 
0.11306 
0.11306 
0.04027 
0.04027 
0.08397 
0.08397 
0.06206 
0.06206 
0.04906 
0.04906 
0.08204 
0.08204 
0.11729 
0.11729 
0.15691 
0.15691 
0.12496 
0.12496 
0.04468 
0.04468 
0.12813 
0.12813 
0.06126 
0.06126 
0.10214 
0.10214 
0.09914 
0.09914 
0.10834 
0.10834 
0.10009 
0.10009 
0.06882 
0.06882 
0.10126 
0.10126 
0.12451 
0.12451 
0.08763 
0.08763 
0.05648 
0.05648 
0.07541 
0.07541 
0.08084 
0.08084 
0.08887 
0.08887 
0.02482 
0.02482 
0.09623 
0.09623 
0.12230 
0.12230 
0.07854 
0.07854 
0.09208 
0.09208 
0.11459 
0.11459 
0.14930 
0.14930 
0.06319 
0.06319 
0.06183 
0.06183 
0.05960 
0.05960 
0.16350 
0.16350 
0.11236 
0.11236 
0.09446 
0.09446 
0.05257 
0.05257 
0.08243 
0.08243 
0.12365 
0.12365 
0.07534 
0.07534 
0.04294 
0.04294 
0.21767 
0.21767 
0.04907 
0.04907 
0.08114 
0.08114 
0.12505 
0.12505 
0.08448 
0.08448 
0.15601 
0.15601 
0.04035 
0.04035 
0.14281 
0.14281 
0.09136 
0.09136 
0.05703 
0.05703 
0.05754 
0.05754 
0.12821 
0.12821 
0.12088 
0.12088 
0.09798 
0.09798 
0.08712 
0.08712 
0.13159 
0.13159 
0.08045 
0.08045 
0.08200 
0.08200 
0.08713 
0.08713 
0.19422 
0.19422 
0.13011 
0.13011 
0.04727 
0.04727 
0.08520 
0.08520 
0.10788 
0.10788 
0.08190 
0.08190 
0.11429 
0.11429 
0.10885 
0.10885 
0.09056 
0.09056 
0.07468 
0.07468 
0.07027 
0.07027 
0.12484 
0.12484 
0.09993 
0.09993 
0.05732 
0.05732 
0.12108 
0.12108 
0.18882 
0.18882 
0.04699 
0.04699 
0.06886 
0.06886 
0.08996 
0.08996 
0.06987 
0.06987 
0.05709 
0.05709 
0.08096 
0.08096 
0.08717 
0.08717 
0.07691 
0.07691 
0.09774 
0.09774 
0.08911 
0.08911 
0.13889 
0.13889 
0.06875 
0.06875 
0.08283 
0.08283 
0.10279 
0.10279 
0.05634 
0.05634 
0.16501 
0.16501 
0.06527 
0.06527 
0.07281 
0.07281 
0.10168 
0.10168 
0.07131 
0.07131 
0.09279 
0.09279 
0.16818 
0.16818 
0.07319 
0.07319 
0.13744 
0.13744 
0.12721 
0.12721 
0.13579 
0.13579 
0.05695 
0.05695 
0.10512 
0.10512 
0.09146 
0.09146 
0.10732 
0.10732 
0.17493 
0.17493 
0.03419 
0.03419 
0.12623 
0.12623 
0.07153 
0.07153 
0.06810 
0.06810 
0.02170 
0.02170 
0.04984 
0.04984 
0.13119 
0.13119 
0.08701 
0.08701 
0.12772 
0.12772 
0.09039 
0.09039 
0.10458 
0.10458 
0.10957 
0.10957 
0.15584 
0.15584 
0.11969 
0.11969 
0.06432 
0.06432 
0.18833 
0.18833 
0.06126 
0.06126 
0.13144 
0.13144 
0.11493 
0.11493 
0.10352 
0.10352 
0.11481 
0.11481 
0.04819 
0.04819 
0.11869 
0.11869 
0.04108 
0.04108 
0.03823 
0.03823 
0.08685 
0.08685 
0.07823 
0.07823 
0.04751 
0.04751 
0.08293 
0.08293 
0.15754 
0.15754 
0.08655 
0.08655 
0.08259 
0.08259 
0.08910 
0.08910 
0.15481 
0.15481 
0.02605 
0.02605 
0.04183 
0.04183 
0.12562 
0.12562 
0.04279 
0.04279 
0.09828 
0.09828 
0.09521 
0.09521 
0.03765 
0.03765 
0.10429 
0.10429 
0.07327 
0.07327 
0.02411 
0.02411 
0.08495 
0.08495 
0.15633 
0.15633 
0.11695 
0.11695 
0.10921 
0.10921 
0.04577 
0.04577 
0.07979 
0.07979 
0.17191 
0.17191 
0.08043 
0.08043 
0.06568 
0.06568 
0.20094 
0.20094 
0.14050 
0.14050 
0.14221 
0.14221 
0.15898 
0.15898 
0.12319 
0.12319 
0.07594 
0.07594 
0.03367 
0.03367 
0.04871 
0.04871 
0.07587 
0.07587 
0.08925 
0.08925 
0.09731 
0.09731 
0.06344 
0.06344 
0.02101 
0.02101 
0.08238 
0.08238 
0.14564 
0.14564 
0.10674 
0.10674 
0.10077 
0.10077 
0.08192 
0.08192 
0.08494 
0.08494 
0.07968 
0.07968 
0.01289 
0.01289 
0.04143 
0.04143 
0.12931 
0.12931 
0.08357 
0.08357 
0.05060 
0.05060 
0.17190 
0.17190 
0.05056 
0.05056 
0.17593 
0.17593 
0.10717 
0.10717 
0.14485 
0.14485 
0.14158 
0.14158 
0.08441 
0.08441 
0.11677 
0.11677 
0.11937 
0.11937 
0.10036 
0.10036 
0.04650 
0.04650 
0.08789 
0.08789 
0.13043 
0.13043 
0.02783 
0.02783 
0.05753 
0.05753 
0.16300 
0.16300 
0.14921 
0.14921 
0.16903 
0.16903 
0.13777 
0.13777 
0.04435 
0.04435 
0.17201 
0.17201 
0.10445 
0.10445 
0.12974 
0.12974 
0.13494 
0.13494 
0.06052 
0.06052 
0.12781 
0.12781 
0.03859 
0.03859 
0.06500 
0.06500 
0.05654 
0.05654 
0.03571 
0.03571 
0.12845 
0.12845 
0.08829 
0.08829 
0.09456 
0.09456 
0.19590 
0.19590 
0.15073 
0.15073 
0.04038 
0.04038 
0.04227 
0.04227 
0.17319 
0.17319 
0.14781 
0.14781 
0.08311 
0.08311 
0.12268 
0.12268 
0.16869 
0.16869 
0.06577 
0.06577 
0.07195 
0.07195 
0.04223 
0.04223 
0.12637 
0.12637 
0.08027 
0.08027 
0.12827 
0.12827 
0.14780 
0.14780 
0.11420 
0.11420 
0.15725 
0.15725 
0.12724 
0.12724 
0.12334 
0.12334 
0.08156 
0.08156 
0.09003 
0.09003 
0.14868 
0.14868 
0.05006 
0.05006 
0.04052 
0.04052 
0.10097 
0.10097 
0.11862 
0.11862 
0.02568 
0.02568 
0.11838 
0.11838 
0.08263 
0.08263 
0.12630 
0.12630 
0.09525 
0.09525 
0.06082 
0.06082 
0.03536 
0.03536 
0.04428 
0.04428 
0.04151 
0.04151 
0.03214 
0.03214 
0.07676 
0.07676 
0.09909 
0.09909 
0.11761 
0.11761 
0.14127 
0.14127 
0.13889 
0.13889 
0.12499 
0.12499 
0.07409 
0.07409 
0.10381 
0.10381 
0.13098 
0.13098 
0.16038 
0.16038 
0.06621 
0.06621 
0.02314 
0.02314 
0.09427 
0.09427 
0.11894 
0.11894 
0.10273 
0.10273 
0.18219 
0.18219 
0.15622 
0.15622 
0.08464 
0.08464 
0.09563 
0.09563 
0.07385 
0.07385 
0.06094 
0.06094 
0.06725 
0.06725 
0.07806 
0.07806 
0.15551 
0.15551 
0.10481 
0.10481 
0.19525 
0.19525 
0.09260 
0.09260 
0.11686 
0.11686 
0.14423 
0.14423 
0.07676 
0.07676 
0.09557 
0.09557 
0.15708 
0.15708 
0.14467 
0.14467 
0.09789 
0.09789 
0.09430 
0.09430 
0.03058 
0.03058 
0.08621 
0.08621 
0.07476 
0.07476 
0.05714 
0.05714 
0.04251 
0.04251 
0.07452 
0.07452 
0.08572 
0.08572 
0.07846 
0.07846 
0.09667 
0.09667 
0.21248 
0.21248 
0.10578 
0.10578 
0.07594 
0.07594 
0.10317 
0.10317 
0.10827 
0.10827 
0.18350 
0.18350 
0.09461 
0.09461 
0.07615 
0.07615 
0.04451 
0.04451 
0.13420 
0.13420 
0.06813 
0.06813 
0.14257 
0.14257 
0.09557 
0.09557 
0.10134 
0.10134 
0.12342 
0.12342 
0.02981 
0.02981 
0.12093 
0.12093 
0.08391 
0.08391 
0.03308 
0.03308 
0.05336 
0.05336 
0.04479 
0.04479 
0.08275 
0.08275 
0.05436 
0.05436 
0.12822 
0.12822 
0.05756 
0.05756 
0.14425 
0.14425 
0.06871 
0.06871 
0.09646 
0.09646 
0.10964 
0.10964 
0.12110 
0.12110 
0.13411 
0.13411 
0.13008 
0.13008 
0.06119 
0.06119 
0.10637 
0.10637 
0.18551 
0.18551 
0.07007 
0.07007 
0.19492 
0.19492 
0.02612 
0.02612 
0.04773 
0.04773 
0.08867 
0.08867 
0.16636 
0.16636 
0.04783 
0.04783 
0.15299 
0.15299 
0.12493 
0.12493 
0.14428 
0.14428 
0.07475 
0.07475 
0.05609 
0.05609 
0.03575 
0.03575 
0.08326 
0.08326 
0.14721 
0.14721 
0.11791 
0.11791 
0.13313 
0.13313 
0.08752 
0.08752 
0.14222 
0.14222 
0.13342 
0.13342 
0.07578 
0.07578 
0.05641 
0.05641 
0.13653 
0.13653 
0.08135 
0.08135 
0.10676 
0.10676 
0.06785 
0.06785 
0.10928 
0.10928 
0.13871 
0.13871 
0.10956 
0.10956 
0.05750 
0.05750 
0.14791 
0.14791 
0.23015 
0.23015 
0.09661 
0.09661 
0.10884 
0.10884 
0.15464 
0.15464 
0.15534 
0.15534 
0.14718 
0.14718 
0.05362 
0.05362 
0.18221 
0.18221 
0.17185 
0.17185 
0.08710 
0.08710 
0.18273 
0.18273 
0.16411 
0.16411 
0.16520 
0.16520 
0.15992 
0.15992 
0.13207 
0.13207 
0.10955 
0.10955 
0.13348 
0.13348 
0.14026 
0.14026 
0.10246 
0.10246 
0.03476 
0.03476 
0.10304 
0.10304 
0.11507 
0.11507 
0.16183 
0.16183 
0.09324 
0.09324 
0.12243 
0.12243 
0.03350 
0.03350 
0.16615 
0.16615 
0.02757 
0.02757 
0.11548 
0.11548 
0.06579 
0.06579 
0.08034 
0.08034 
0.06933 
0.06933 
0.13584 
0.13584 
0.12368 
0.12368 
0.04961 
0.04961 
0.27849 
0.27849 
0.03080 
0.03080 
0.19352 
0.19352 
0.09159 
0.09159 
0.08328 
0.08328 
0.13397 
0.13397 
0.07644 
0.07644 
0.10131 
0.10131 
0.13548 
0.13548 
0.08709 
0.08709 
0.07522 
0.07522 
0.08779 
0.08779 
0.03821 
0.03821 
0.23461 
0.23461 
0.11742 
0.11742 
0.13278 
0.13278 
0.11275 
0.11275 
0.04848 
0.04848 
0.07894 
0.07894 
0.16470 
0.16470 
0.09444 
0.09444 
0.05373 
0.05373 
0.10856 
0.10856 
0.09958 
0.09958 
0.13103 
0.13103 
0.10460 
0.10460 
0.14293 
0.14293 
0.06496 
0.06496 
0.04555 
0.04555 
0.05572 
0.05572 
0.08964 
0.08964 
0.11827 
0.11827 
0.10536 
0.10536 
0.25809 
0.25809 
0.13127 
0.13127 
0.08208 
0.08208 
0.09197 
0.09197 
0.10828 
0.10828 
0.05811 
0.05811 
0.12697 
0.12697 
0.09983 
0.09983 
0.07627 
0.07627 
0.06602 
0.06602 
0.15368 
0.15368 
0.12591 
0.12591 
0.14475 
0.14475 
0.18514 
0.18514 
0.17082 
0.17082 
0.06094 
0.06094 
0.12048 
0.12048 
0.21307 
0.21307 
0.05735 
0.05735 
0.05055 
0.05055 
0.12287 
0.12287 
0.09705 
0.09705 
0.10421 
0.10421 
0.00728 
0.00728 
0.09836 
0.09836 
0.06671 
0.06671 
0.12361 
0.12361 
0.01107 
0.01107 
0.11644 
0.11644 
0.11561 
0.11561 
0.09965 
0.09965 
0.13689 
0.13689 
0.09695 
0.09695 
0.04978 
0.04978 
0.08570 
0.08570 
0.11303 
0.11303 
0.15877 
0.15877 
0.03173 
0.03173 
0.17834 
0.17834 
0.17679 
0.17679 
0.11733 
0.11733 
0.06279 
0.06279 
0.05208 
0.05208 
0.03270 
0.03270 
0.22352 
0.22352 
0.06908 
0.06908 
0.14299 
0.14299 
0.07581 
0.07581 
0.09829 
0.09829 
0.06705 
0.06705 
0.16960 
0.16960 
0.11522 
0.11522 
0.15340 
0.15340 
0.07753 
0.07753 
0.04423 
0.04423 
0.12091 
0.12091 
0.06066 
0.06066 
0.06388 
0.06388 
0.07232 
0.07232 
0.11146 
0.11146 
0.13663 
0.13663 
0.13233 
0.13233 
0.13882 
0.13882 
0.08504 
0.08504 
0.07454 
0.07454 
0.07872 
0.07872 
0.07565 
0.07565 
SCALARS Umean_X double 1 
LOOKUP_TABLE default
0.03750 
0.03750 
-0.00600 
-0.00600 
-0.09650 
-0.09650 
-0.04150 
-0.04150 
-0.04850 
-0.04850 
-0.02400 
-0.02400 
0.04200 
0.04200 
0.02300 
0.02300 
0.00600 
0.00600 
-0.02100 
-0.02100 
-0.03550 
-0.03550 
0.00500 
0.00500 
0.00200 
0.00200 
-0.02450 
-0.02450 
-0.10850 
-0.10850 
0.02100 
0.02100 
-0.07800 
-0.07800 
-0.02800 
-0.02800 
0.08250 
0.08250 
-0.03550 
-0.03550 
-0.07850 
-0.07850 
0.05900 
0.05900 
-0.06900 
-0.06900 
-0.03700 
-0.03700 
-0.00000 
-0.00000 
-0.07250 
-0.07250 
-0.01000 
-0.01000 
-0.04950 
-0.04950 
0.00150 
0.00150 
-0.00950 
-0.00950 
0.02750 
0.02750 
-0.08500 
-0.08500 
-0.00600 
-0.00600 
0.00850 
0.00850 
0.00050 
0.00050 
-0.05800 
-0.05800 
0.05800 
0.05800 
0.00200 
0.00200 
0.01650 
0.01650 
0.02400 
0.02400 
0.03550 
0.03550 
-0.01100 
-0.01100 
-0.02950 
-0.02950 
-0.10000 
-0.10000 
-0.04850 
-0.04850 
-0.03300 
-0.03300 
0.03750 
0.03750 
0.00500 
0.00500 
-0.04600 
-0.04600 
-0.03500 
-0.03500 
0.09900 
0.09900 
-0.04900 
-0.04900 
-0.04150 
-0.04150 
0.00900 
0.00900 
0.00250 
0.00250 
0.04000 
0.04000 
-0.03150 
-0.03150 
-0.13300 
-0.13300 
-0.06400 
-0.06400 
-0.00400 
-0.00400 
0.00200 
0.00200 
0.04700 
0.04700 
-0.09950 
-0.09950 
-0.03150 
-0.03150 
0.04950 
0.04950 
-0.01550 
-0.01550 
-0.03150 
-0.03150 
-0.05100 
-0.05100 
-0.05350 
-0.05350 
0.01450 
0.01450 
0.06350 
0.06350 
-0.01750 
-0.01750 
-0.07750 
-0.07750 
-0.00200 
-0.00200 
0.03600 
0.03600 
-0.00800 
-0.00800 
0.06000 
0.06000 
0.06700 
0.06700 
-0.06150 
-0.06150 
0.01700 
0.01700 
-0.05000 
-0.05000 
-0.01850 
-0.01850 
-0.01900 
-0.01900 
0.03200 
0.03200 
0.01750 
0.01750 
-0.04600 
-0.04600 
-0.01100 
-0.01100 
-0.06300 
-0.06300 
-0.03900 
-0.03900 
-0.04450 
-0.04450 
-0.03700 
-0.03700 
0.00350 
0.00350 
0.00650 
0.00650 
-0.06450 
-0.06450 
0.00850 
0.00850 
0.08050 
0.08050 
0.00600 
0.00600 
-0.03050 
-0.03050 
-0.02200 
-0.02200 
0.00150 
0.00150 
0.02500 
0.02500 
-0.03350 
-0.03350 
0.00650 
0.00650 
-0.00050 
-0.00050 
0.04300 
0.04300 
-0.03400 
-0.03400 
-0.10750 
-0.10750 
-0.03050 
-0.03050 
0.04700 
0.04700 
-0.03950 
-0.03950 
0.08600 
0.08600 
-0.03900 
-0.03900 
-0.00000 
-0.00000 
-0.03400 
-0.03400 
0.00800 
0.00800 
0.11050 
0.11050 
-0.01250 
-0.01250 
0.09350 
0.09350 
0.03300 
0.03300 
-0.00600 
-0.00600 
-0.01150 
-0.01150 
0.01750 
0.01750 
-0.02700 
-0.02700 
-0.05750 
-0.05750 
0.05450 
0.05450 
-0.07650 
-0.07650 
-0.00850 
-0.00850 
-0.04300 
-0.04300 
0.01900 
0.01900 
-0.04950 
-0.04950 
-0.05550 
-0.05550 
-0.00050 
-0.00050 
0.05400 
0.05400 
0.04000 
0.04000 
-0.02150 
-0.02150 
-0.02050 
-0.02050 
0.04700 
0.04700 
0.00400 
0.00400 
0.02650 
0.02650 
-0.01750 
-0.01750 
-0.02850 
-0.02850 
0.05850 
0.05850 
0.02150 
0.02150 
0.00600 
0.00600 
0.02600 
0.02600 
0.01350 
0.01350 
-0.04550 
-0.04550 
0.06800 
0.06800 
-0.00200 
-0.00200 
0.00550 
0.00550 
0.00350 
0.00350 
0.00900 
0.00900 
0.07850 
0.07850 
-0.01450 
-0.01450 
0.01850 
0.01850 
-0.03300 
-0.03300 
-0.01900 
-0.01900 
0.02650 
0.02650 
-0.06250 
-0.06250 
0.02350 
0.02350 
-0.08100 
-0.08100 
0.03100 
0.03100 
0.03600 
0.03600 
0.02500 
0.02500 
0.03800 
0.03800 
0.01550 
0.01550 
0.02350 
0.02350 
0.02800 
0.02800 
0.05700 
0.05700 
0.02300 
0.02300 
0.01350 
0.01350 
0.08400 
0.08400 
0.06100 
0.06100 
-0.03450 
-0.03450 
-0.02050 
-0.02050 
0.02900 
0.02900 
0.01250 
0.01250 
-0.00450 
-0.00450 
0.01950 
0.01950 
-0.06000 
-0.06000 
-0.03400 
-0.03400 
-0.01050 
-0.01050 
-0.07150 
-0.07150 
0.04500 
0.04500 
-0.00550 
-0.00550 
-0.08300 
-0.08300 
0.01100 
0.01100 
0.05850 
0.05850 
-0.06450 
-0.06450 
-0.00400 
-0.00400 
-0.01150 
-0.01150 
0.01200 
0.01200 
-0.03750 
-0.03750 
0.04100 
0.04100 
0.06850 
0.06850 
0.01850 
0.01850 
0.05750 
0.05750 
0.08950 
0.08950 
-0.09550 
-0.09550 
0.04300 
0.04300 
0.00650 
0.00650 
0.07500 
0.07500 
0.05000 
0.05000 
-0.06150 
-0.06150 
-0.02700 
-0.02700 
0.03150 
0.03150 
0.00450 
0.00450 
-0.00850 
-0.00850 
0.04350 
0.04350 
0.08250 
0.08250 
0.06650 
0.06650 
0.02950 
0.02950 
-0.02650 
-0.02650 
0.01750 
0.01750 
0.02300 
0.02300 
0.04600 
0.04600 
0.00500 
0.00500 
0.01700 
0.01700 
0.03600 
0.03600 
-0.02300 
-0.02300 
-0.00250 
-0.00250 
0.05700 
0.05700 
-0.03050 
-0.03050 
-0.01050 
-0.01050 
0.05350 
0.05350 
-0.07850 
-0.07850 
-0.05650 
-0.05650 
0.02600 
0.02600 
-0.05400 
-0.05400 
0.03850 
0.03850 
0.01950 
0.01950 
0.05100 
0.05100 
-0.02200 
-0.02200 
0.03750 
0.03750 
-0.07150 
-0.07150 
0.05950 
0.05950 
-0.02300 
-0.02300 
-0.00700 
-0.00700 
0.00500 
0.00500 
0.06600 
0.06600 
-0.00550 
-0.00550 
0.05250 
0.05250 
0.05350 
0.05350 
-0.05750 
-0.05750 
0.01350 
0.01350 
0.06950 
0.06950 
-0.01300 
-0.01300 
0.01950 
0.01950 
0.01050 
0.01050 
0.06000 
0.06000 
-0.03550 
-0.03550 
0.01200 
0.01200 
-0.04250 
-0.04250 
-0.07450 
-0.07450 
-0.00650 
-0.00650 
0.07200 
0.07200 
0.00600 
0.00600 
0.10350 
0.10350 
0.03450 
0.03450 
-0.04050 
-0.04050 
0.01100 
0.01100 
-0.03850 
-0.03850 
-0.02700 
-0.02700 
0.01750 
0.01750 
0.02350 
0.02350 
-0.09800 
-0.09800 
0.07000 
0.07000 
-0.10900 
-0.10900 
-0.02500 
-0.02500 
-0.03250 
-0.03250 
-0.03950 
-0.03950 
-0.03100 
-0.03100 
-0.03200 
-0.03200 
-0.00450 
-0.00450 
0.00700 
0.00700 
-0.01900 
-0.01900 
0.05300 
0.05300 
0.01600 
0.01600 
-0.04650 
-0.04650 
-0.11800 
-0.11800 
0.07700 
0.07700 
-0.02550 
-0.02550 
-0.08350 
-0.08350 
-0.00550 
-0.00550 
-0.00350 
-0.00350 
0.03350 
0.03350 
0.02950 
0.02950 
0.04600 
0.04600 
0.00050 
0.00050 
0.00450 
0.00450 
0.00450 
0.00450 
-0.00550 
-0.00550 
-0.09200 
-0.09200 
-0.02100 
-0.02100 
-0.08000 
-0.08000 
0.07900 
0.07900 
0.02050 
0.02050 
-0.05000 
-0.05000 
0.03750 
0.03750 
-0.01300 
-0.01300 
0.06600 
0.06600 
0.00800 
0.00800 
0.01900 
0.01900 
-0.01800 
-0.01800 
-0.01650 
-0.01650 
-0.00150 
-0.00150 
0.03400 
0.03400 
0.05700 
0.05700 
-0.19050 
-0.19050 
0.05800 
0.05800 
0.03100 
0.03100 
0.00600 
0.00600 
-0.01550 
-0.01550 
0.03500 
0.03500 
0.08300 
0.08300 
0.00850 
0.00850 
-0.00950 
-0.00950 
0.03850 
0.03850 
-0.01300 
-0.01300 
-0.00700 
-0.00700 
-0.01150 
-0.01150 
-0.00700 
-0.00700 
-0.03450 
-0.03450 
0.02750 
0.02750 
0.02150 
0.02150 
-0.00300 
-0.00300 
-0.02300 
-0.02300 
-0.01500 
-0.01500 
0.03700 
0.03700 
-0.03650 
-0.03650 
0.00550 
0.00550 
-0.04300 
-0.04300 
0.00550 
0.00550 
-0.11400 
-0.11400 
-0.02000 
-0.02000 
-0.04350 
-0.04350 
0.04950 
0.04950 
0.03300 
0.03300 
-0.12750 
-0.12750 
-0.08050 
-0.08050 
0.01250 
0.01250 
-0.00100 
-0.00100 
0.03850 
0.03850 
0.02500 
0.02500 
0.05600 
0.05600 
0.01200 
0.01200 
0.00950 
0.00950 
-0.04150 
-0.04150 
0.09550 
0.09550 
0.00700 
0.00700 
-0.04650 
-0.04650 
-0.01300 
-0.01300 
0.01700 
0.01700 
0.02550 
0.02550 
0.00050 
0.00050 
-0.00500 
-0.00500 
-0.04150 
-0.04150 
0.01700 
0.01700 
0.00950 
0.00950 
0.05700 
0.05700 
-0.01150 
-0.01150 
-0.10700 
-0.10700 
0.07850 
0.07850 
0.00550 
0.00550 
-0.00650 
-0.00650 
-0.05100 
-0.05100 
0.01800 
0.01800 
-0.04950 
-0.04950 
-0.03100 
-0.03100 
0.00200 
0.00200 
0.01750 
0.01750 
0.01050 
0.01050 
-0.00400 
-0.00400 
0.00600 
0.00600 
0.13050 
0.13050 
0.05000 
0.05000 
-0.08050 
-0.08050 
-0.02450 
-0.02450 
0.01700 
0.01700 
-0.03500 
-0.03500 
0.02700 
0.02700 
0.13100 
0.13100 
0.07050 
0.07050 
0.05250 
0.05250 
0.09450 
0.09450 
-0.01600 
-0.01600 
-0.01850 
-0.01850 
0.00200 
0.00200 
0.04500 
0.04500 
0.02750 
0.02750 
0.01200 
0.01200 
0.01700 
0.01700 
0.08000 
0.08000 
0.00500 
0.00500 
0.00300 
0.00300 
0.07850 
0.07850 
-0.01150 
-0.01150 
-0.00300 
-0.00300 
0.02150 
0.02150 
0.02300 
0.02300 
0.01950 
0.01950 
0.01100 
0.01100 
0.06650 
0.06650 
0.05850 
0.05850 
-0.05100 
-0.05100 
-0.00550 
-0.00550 
0.03300 
0.03300 
-0.02750 
-0.02750 
0.00650 
0.00650 
-0.03100 
-0.03100 
0.02750 
0.02750 
0.02100 
0.02100 
0.03650 
0.03650 
-0.05850 
-0.05850 
0.10400 
0.10400 
-0.02750 
-0.02750 
0.07350 
0.07350 
0.09050 
0.09050 
0.04600 
0.04600 
-0.00150 
-0.00150 
0.00450 
0.00450 
0.01000 
0.01000 
0.14100 
0.14100 
0.02050 
0.02050 
0.04700 
0.04700 
-0.06950 
-0.06950 
-0.03350 
-0.03350 
-0.07850 
-0.07850 
0.12250 
0.12250 
0.03650 
0.03650 
0.04250 
0.04250 
-0.03100 
-0.03100 
-0.03550 
-0.03550 
0.09450 
0.09450 
-0.02800 
-0.02800 
0.02400 
0.02400 
0.00200 
0.00200 
-0.03200 
-0.03200 
-0.02850 
-0.02850 
-0.08200 
-0.08200 
-0.02900 
-0.02900 
-0.06000 
-0.06000 
0.23200 
0.23200 
-0.02800 
-0.02800 
0.00550 
0.00550 
0.01500 
0.01500 
0.05300 
0.05300 
0.01850 
0.01850 
0.02400 
0.02400 
-0.05350 
-0.05350 
0.01750 
0.01750 
0.02400 
0.02400 
0.05650 
0.05650 
-0.05000 
-0.05000 
-0.07300 
-0.07300 
0.10700 
0.10700 
0.10600 
0.10600 
-0.03750 
-0.03750 
-0.02800 
-0.02800 
0.11550 
0.11550 
-0.01400 
-0.01400 
-0.00950 
-0.00950 
0.05100 
0.05100 
0.00300 
0.00300 
0.00650 
0.00650 
-0.00100 
-0.00100 
0.06150 
0.06150 
-0.02000 
-0.02000 
0.01500 
0.01500 
0.00450 
0.00450 
0.02600 
0.02600 
-0.00250 
-0.00250 
0.05000 
0.05000 
0.04200 
0.04200 
0.01800 
0.01800 
-0.04600 
-0.04600 
-0.01550 
-0.01550 
0.01450 
0.01450 
0.05800 
0.05800 
-0.00750 
-0.00750 
-0.02900 
-0.02900 
-0.00050 
-0.00050 
0.07950 
0.07950 
0.06250 
0.06250 
-0.02000 
-0.02000 
-0.01800 
-0.01800 
0.11200 
0.11200 
0.01900 
0.01900 
0.04950 
0.04950 
0.05300 
0.05300 
-0.06250 
-0.06250 
0.00250 
0.00250 
-0.02500 
-0.02500 
-0.01350 
-0.01350 
0.01200 
0.01200 
0.00850 
0.00850 
-0.02600 
-0.02600 
-0.02100 
-0.02100 
0.02050 
0.02050 
0.06350 
0.06350 
0.01150 
0.01150 
0.04000 
0.04000 
-0.05950 
-0.05950 
-0.11500 
-0.11500 
0.11250 
0.11250 
-0.05750 
-0.05750 
0.06550 
0.06550 
-0.07250 
-0.07250 
0.04800 
0.04800 
SCALARS Umean_Y double 1 
LOOKUP_TABLE default
0.05100 
0.05100 
0.05150 
0.05150 
0.04800 
0.04800 
-0.02350 
-0.02350 
0.00050 
0.00050 
0.02600 
0.02600 
0.12250 
0.12250 
-0.04000 
-0.04000 
-0.03450 
-0.03450 
-0.03400 
-0.03400 
0.04550 
0.04550 
0.05800 
0.05800 
0.04900 
0.04900 
-0.03700 
-0.03700 
0.00700 
0.00700 
0.15000 
0.15000 
0.05450 
0.05450 
0.03250 
0.03250 
0.09300 
0.09300 
0.02450 
0.02450 
0.03450 
0.03450 
-0.01850 
-0.01850 
0.00200 
0.00200 
0.08900 
0.08900 
0.06450 
0.06450 
0.06750 
0.06750 
0.10000 
0.10000 
0.03550 
0.03550 
-0.02200 
-0.02200 
0.02200 
0.02200 
0.05400 
0.05400 
0.02000 
0.02000 
0.01600 
0.01600 
0.05500 
0.05500 
0.00850 
0.00850 
0.00700 
0.00700 
0.06700 
0.06700 
0.07950 
0.07950 
0.13700 
0.13700 
0.05750 
0.05750 
0.04650 
0.04650 
-0.00300 
-0.00300 
0.10650 
0.10650 
0.04500 
0.04500 
0.06000 
0.06000 
0.02350 
0.02350 
0.05800 
0.05800 
0.12200 
0.12200 
0.01400 
0.01400 
0.01250 
0.01250 
0.06250 
0.06250 
-0.00250 
-0.00250 
0.06850 
0.06850 
-0.00750 
-0.00750 
0.05450 
0.05450 
0.15000 
0.15000 
0.01950 
0.01950 