# vtk DataFile Version 2.1 
Trajects from timestep 166 with color option 
ASCII 
 
DATASET POLYDATA POINTS 946 float 
2.045 1.307 -71.956 
2.250 1.501 -72.136 
13.331 0.431 -71.173 
13.330 0.772 -71.367 
10.562 2.268 -71.080 
10.442 2.322 -71.238 
15.256 4.992 -72.503 
15.381 5.317 -72.709 
-7.466 5.038 -65.668 
-7.270 5.240 -65.583 
-2.357 8.270 -70.703 
-2.430 8.365 -70.951 
1.750 3.467 -69.164 
1.780 3.573 -69.172 
7.155 3.702 -69.873 
7.210 3.896 -70.164 
-2.624 -11.003 -71.231 
-2.437 -10.846 -71.332 
1.180 6.513 -67.575 
1.196 6.577 -67.751 
-9.867 1.897 -70.847 
-9.643 2.022 -70.992 
7.419 0.844 -71.962 
7.605 1.026 -72.341 
-2.350 4.676 -70.717 
-2.359 4.897 -71.028 
0.669 -5.274 -74.157 
0.824 -5.136 -74.395 
-4.296 -5.447 -75.278 
-4.232 -5.274 -75.514 
-10.957 3.473 -71.434 
-10.672 3.616 -71.550 
4.042 7.144 -68.294 
4.012 7.128 -68.448 
2.542 -8.891 -64.091 
2.397 -8.822 -64.326 
-2.158 5.116 -67.888 
-2.027 5.235 -68.193 
4.942 6.643 -74.892 
5.034 6.671 -75.254 
2.062 7.536 -68.277 
2.068 7.510 -68.419 
0.005 3.187 -67.473 
0.045 3.322 -67.561 
2.726 4.482 -67.217 
2.840 4.572 -67.473 
2.804 4.335 -71.268 
2.952 4.383 -71.692 
-0.931 -9.832 -71.072 
-0.854 -9.760 -71.196 
5.947 4.980 -67.366 
6.136 5.157 -67.596 
-13.528 -7.042 -74.752 
-13.362 -6.842 -74.684 
4.231 2.087 -68.608 
4.324 2.194 -68.566 
8.947 2.488 -70.282 
8.964 2.468 -70.539 
6.149 -2.134 -69.384 
6.310 -2.068 -69.621 
-0.807 -2.465 -72.727 
-0.627 -2.275 -72.880 
6.743 5.424 -73.926 
6.864 5.518 -74.360 
7.526 8.963 -70.127 
7.595 8.837 -70.261 
9.694 6.835 -70.762 
9.857 6.754 -70.878 
0.016 12.254 -67.679 
-0.263 12.136 -67.433 
11.498 -2.771 -72.960 
11.766 -2.845 -73.353 
4.906 11.187 -68.396 
4.747 11.014 -68.175 
5.591 -10.749 -73.529 
5.775 -10.626 -73.584 
2.071 5.500 -68.739 
2.146 5.525 -68.982 
9.821 8.900 -68.509 
9.813 8.802 -68.617 
-2.260 9.089 -67.967 
-2.406 9.195 -67.972 
-0.400 -10.012 -70.877 
-0.332 -9.987 -71.043 
-11.281 2.579 -69.422 
-11.139 2.716 -69.448 
-6.227 -3.651 -73.387 
-6.069 -3.459 -73.652 
-0.259 0.503 -67.912 
0.022 0.558 -68.219 
4.031 8.437 -70.011 
4.000 8.345 -70.027 
-8.160 4.717 -72.746 
-7.998 5.030 -72.974 
-5.280 8.291 -70.242 
-5.381 8.520 -70.507 
5.140 -12.908 -66.689 
5.336 -12.788 -66.608 
10.641 -0.677 -66.389 
10.725 -0.593 -66.994 
-2.053 -0.643 -71.721 
-1.983 -0.313 -71.906 
-5.684 11.966 -73.037 
-5.904 12.180 -73.175 
12.443 7.946 -70.263 
12.525 8.158 -70.439 
-7.451 -4.766 -71.798 
-7.309 -4.532 -71.842 
3.972 8.278 -67.776 
3.926 8.233 -67.921 
2.336 -3.739 -72.055 
2.413 -3.528 -72.329 
0.397 -2.555 -69.238 
0.588 -2.412 -69.692 
-6.883 2.755 -66.430 
-6.571 3.003 -66.453 
0.200 11.422 -71.467 
-0.095 11.447 -71.495 
14.546 9.314 -71.269 
14.654 9.314 -71.467 
-8.689 4.803 -69.019 
-8.501 4.913 -69.142 
-6.454 4.609 -65.920 
-6.149 4.944 -65.844 
-0.453 -11.154 -69.101 
-0.292 -10.994 -69.052 
-0.144 0.180 -69.562 
0.027 0.585 -70.151 
-5.939 8.562 -68.709 
-6.131 8.654 -68.820 
1.071 -3.369 -70.351 
1.258 -3.201 -70.687 
2.016 3.187 -65.092 
2.014 3.155 -65.369 
-10.889 9.616 -68.071 
-10.950 9.762 -68.276 
5.332 -0.358 -68.062 
5.421 -0.222 -68.227 
5.340 3.785 -69.345 
5.452 3.985 -69.667 
6.899 1.883 -67.639 
6.854 1.799 -67.886 
7.120 -8.222 -70.870 
7.291 -8.151 -70.985 
4.620 8.823 -76.181 
4.804 8.803 -76.297 
3.337 -4.411 -73.134 
3.568 -4.218 -73.428 
-0.387 -4.548 -68.875 
-0.099 -4.473 -69.379 
-5.275 1.774 -62.910 
-5.177 2.029 -63.105 
2.385 -3.066 -63.923 
2.324 -3.196 -64.405 
10.496 9.404 -69.056 
10.545 9.359 -69.197 
3.994 6.610 -67.597 
4.123 6.565 -67.722 
-9.941 11.346 -72.809 
-10.020 11.448 -72.997 
4.206 -6.751 -69.514 
4.407 -6.864 -69.723 
-1.656 -11.493 -68.235 
-1.605 -11.607 -68.582 
-12.888 10.567 -71.486 
-12.762 10.776 -71.780 
-5.370 8.816 -72.576 
-5.288 9.197 -72.876 
4.456 5.337 -68.616 
4.670 5.371 -68.821 
7.754 -12.854 -69.442 
7.873 -12.739 -69.414 
-6.201 3.952 -74.571 
-6.063 4.259 -74.763 
-5.242 -0.088 -73.563 
-5.267 0.118 -73.934 
0.278 -5.617 -68.794 
0.564 -5.545 -69.223 
1.401 -6.632 -63.810 
1.320 -6.516 -64.269 
-3.724 -2.705 -70.717 
-3.535 -2.625 -71.176 
14.368 -3.628 -69.721 
14.597 -3.536 -70.122 
-6.606 -9.787 -68.850 
-6.381 -9.658 -68.967 
-9.783 -4.579 -64.190 
-9.567 -4.478 -64.366 
13.669 3.745 -69.465 
13.666 3.926 -69.607 
-8.909 11.696 -66.848 
-8.940 11.822 -66.963 
1.296 -8.039 -69.903 
1.633 -8.030 -70.296 
4.411 7.934 -74.292 
4.505 7.905 -74.441 
-6.400 -6.428 -62.342 
-6.499 -6.287 -62.906 
6.390 -0.739 -68.500 
6.561 -0.721 -68.708 
10.007 12.147 -70.055 
9.850 11.906 -70.038 
2.961 -10.652 -71.464 
3.159 -10.583 -71.510 
-1.308 -10.318 -70.855 
-1.223 -10.177 -70.858 
-8.412 6.559 -67.627 
-8.429 6.693 -67.761 
5.605 4.901 -68.867 
5.689 5.098 -69.210 
-13.184 -4.190 -74.043 
-12.955 -3.988 -73.934 
-5.188 -5.564 -69.672 
-4.837 -5.207 -69.789 
11.941 11.673 -73.666 
12.068 11.692 -74.074 
-10.483 -5.733 -67.403 
-10.319 -5.583 -67.411 
-11.561 8.444 -66.602 
-11.527 8.709 -66.557 
-4.347 0.765 -63.405 
-4.092 1.075 -63.423 
1.670 6.634 -67.647 
1.688 6.673 -67.804 
4.165 9.096 -62.810 
4.355 9.159 -62.784 
0.458 8.507 -76.220 
0.456 8.554 -76.253 
0.100 -4.392 -63.732 
0.188 -4.439 -64.125 
1.627 11.352 -71.830 
1.258 11.243 -71.883 
-11.831 10.180 -63.671 
-11.805 10.297 -63.541 
8.105 -1.062 -65.885 
8.342 -0.981 -66.334 
-1.391 -1.816 -67.980 
-1.133 -1.523 -68.325 
7.020 -3.959 -67.834 
7.197 -3.968 -68.462 
8.212 2.524 -62.037 
8.050 2.604 -62.351 
3.471 -3.803 -77.458 
3.619 -3.666 -77.666 
-11.933 11.346 -67.701 
-11.858 11.485 -67.816 
13.779 6.874 -68.597 
13.860 7.037 -68.702 
-2.838 3.614 -61.053 
-2.635 3.882 -61.022 
3.968 0.280 -72.317 
4.171 0.513 -72.525 
2.752 3.843 -65.725 
2.827 3.948 -65.946 
3.521 11.315 -67.166 
3.373 11.281 -67.220 
0.781 2.526 -62.167 
0.850 2.312 -62.046 
11.807 10.056 -65.632 
11.846 10.122 -65.738 
-13.752 -8.479 -66.734 
-13.704 -8.337 -67.100 
-10.790 -2.758 -63.738 
-10.730 -2.497 -63.881 
14.844 -12.990 -71.135 
14.931 -13.026 -71.224 
-11.234 9.555 -73.172 
-11.220 9.778 -73.482 
10.737 -5.841 -68.893 
10.994 -5.836 -69.278 
12.936 -12.366 -72.772 
13.013 -12.425 -72.934 
14.152 5.385 -69.731 
14.275 5.636 -70.061 
-9.119 4.763 -63.268 
-8.893 4.903 -63.164 
2.225 -5.973 -69.980 
2.327 -5.844 -70.217 
4.503 4.867 -64.721 
4.572 4.965 -64.896 
0.006 9.762 -72.749 
-0.006 9.919 -72.729 
11.853 3.311 -69.696 
11.871 3.285 -69.784 
-5.032 4.767 -64.208 
-4.694 5.007 -64.297 
5.971 -6.977 -69.199 
6.174 -6.892 -69.208 
-9.167 -6.109 -64.943 
-9.052 -5.996 -65.097 
14.734 2.958 -70.341 
14.573 3.284 -70.414 
-4.965 1.647 -66.295 
-4.677 1.735 -66.380 
-5.679 -11.868 -69.661 
-5.567 -11.684 -69.498 
7.607 9.383 -62.477 
7.819 9.508 -62.319 
-8.773 3.274 -62.069 
-8.537 3.392 -61.948 
7.159 -9.301 -61.578 
6.938 -9.265 -61.690 
1.535 8.914 -69.766 
1.427 8.889 -69.805 
5.785 -7.694 -67.977 
6.053 -7.486 -67.816 
-12.693 2.334 -69.333 
-12.605 2.553 -69.275 
2.324 -0.194 -64.239 
2.541 -0.372 -64.382 
5.871 5.659 -63.158 
5.798 5.527 -63.226 
-8.831 -9.475 -66.306 
-8.765 -9.313 -66.612 
12.922 -1.208 -71.760 
12.988 -1.056 -72.153 
-13.145 7.904 -75.351 
-13.107 8.304 -75.791 
-4.400 -9.227 -60.909 
-4.653 -9.243 -61.196 
5.526 8.063 -65.649 
5.733 8.278 -65.786 
-14.072 -11.290 -68.353 
-13.929 -11.284 -68.509 
4.422 0.847 -64.855 
4.568 0.904 -64.947 
-3.164 -10.508 -67.848 
-2.927 -10.436 -67.912 
-13.635 8.250 -67.695 
-13.571 8.298 -67.894 
4.849 7.621 -64.789 
5.027 7.781 -64.952 
-6.795 8.802 -75.057 
-6.741 9.002 -75.398 
-14.772 10.392 -69.208 
-14.537 10.801 -69.488 
5.682 -8.998 -75.285 
5.832 -8.892 -75.436 
-5.051 0.455 -63.068 
-4.786 0.594 -63.028 
13.456 -0.582 -71.985 
13.496 -0.357 -72.233 
-9.931 0.274 -75.104 
-9.886 0.397 -75.304 
12.125 9.588 -70.338 
12.237 9.684 -70.511 
9.886 9.642 -71.139 
10.027 9.667 -71.319 
-0.133 2.903 -72.570 
-0.029 3.025 -72.949 
-11.011 -6.452 -73.020 
-10.809 -6.398 -73.290 
8.380 10.583 -69.509 
8.448 10.417 -69.561 
16.325 2.106 -67.876 
16.162 2.395 -67.868 
4.744 -10.022 -65.762 
4.797 -9.960 -65.649 
4.000 -9.030 -63.583 
3.908 -8.956 -63.688 
-6.173 4.493 -65.633 
-5.853 4.827 -65.604 
-7.322 -2.620 -61.395 
-7.316 -2.560 -61.855 
-1.568 -9.402 -67.815 
-1.080 -9.231 -68.062 
-7.735 -10.395 -65.531 
-7.766 -10.372 -65.824 
-14.309 -8.561 -75.504 
-14.173 -8.211 -75.623 
14.335 -2.127 -72.153 
14.378 -1.970 -72.436 
-2.017 -10.569 -70.055 
-1.881 -10.364 -70.045 
8.189 -2.847 -69.313 
8.433 -2.846 -69.776 
2.953 10.141 -71.626 
2.926 10.037 -71.604 
5.652 6.722 -73.196 
5.687 6.821 -73.572 
0.500 1.081 -60.729 
0.493 1.016 -60.695 
-11.410 11.227 -65.507 
-11.253 11.251 -65.536 
-6.051 -10.180 -68.517 
-5.704 -10.019 -68.520 
12.377 3.257 -68.021 
12.320 3.323 -68.064 
2.469 7.628 -77.088 
2.502 7.799 -77.426 
1.684 5.489 -75.638 
1.812 5.631 -75.982 
6.929 7.299 -64.063 
7.113 7.257 -64.098 
9.271 7.274 -62.610 
9.233 7.354 -62.527 
11.048 -10.454 -68.585 
11.205 -10.425 -68.660 
-10.193 11.033 -70.267 
-10.256 11.099 -70.420 
1.744 6.024 -74.238 
1.976 6.111 -74.613 
11.010 3.859 -66.405 
11.084 4.065 -66.459 
-2.114 11.053 -71.673 
-2.359 11.087 -71.596 
-7.719 -3.598 -74.952 
-7.801 -3.539 -75.076 
0.850 10.072 -74.102 
0.773 10.091 -74.278 
1.518 5.901 -68.896 
1.560 5.920 -69.133 
10.535 0.670 -67.747 
10.739 0.792 -68.154 
14.703 0.781 -69.435 
14.752 1.091 -69.536 
2.848 -12.975 -66.770 
2.982 -12.948 -66.698 
-8.827 -1.653 -75.532 
-8.719 -1.561 -75.890 
-10.109 12.240 -64.541 
-10.112 12.409 -64.504 
-7.661 -5.218 -74.313 
-7.555 -5.098 -74.387 
-2.669 2.330 -60.576 
-2.512 2.467 -60.648 
9.059 7.977 -70.279 
9.236 7.905 -70.417 
-2.975 -3.319 -71.991 
-2.861 -3.272 -72.375 
15.649 3.284 -69.564 
15.459 3.687 -69.641 
-6.804 -0.891 -63.819 
-6.731 -0.659 -63.982 
16.351 -4.424 -71.328 
16.454 -4.386 -71.652 
5.374 10.993 -65.292 
5.375 10.997 -65.122 
15.627 3.150 -66.666 
15.542 3.335 -66.741 
-1.107 10.241 -70.215 
-1.284 10.347 -70.169 
-9.141 11.142 -69.163 
[...]
POINT_DATA 946 
SCALARS Umean double 1 
LOOKUP_TABLE default
0.16738 
0.16738 
0.19616 
0.19616 
0.10281 
0.10281 
0.20229 
0.20229 
0.14701 
0.14701 
0.13771 
0.13771 
0.05523 
0.05523 
0.17702 
0.17702 
0.13212 
0.13212 
0.09398 
0.09398 
0.14733 
0.14733 
0.22987 
0.22987 
0.19082 
0.19082 
0.15789 
0.15789 
0.14977 
0.14977 
0.16965 
0.16965 
0.07885 
0.07885 
0.14231 
0.14231 
0.17631 
0.17631 
0.18728 
0.18728 
0.07224 
0.07224 
0.08302 
0.08302 
0.14717 
0.14717 
0.22582 
0.22582 
0.08138 
0.08138 
0.17317 
0.17317 
0.13433 
0.13433 
0.07393 
0.07393 
0.12917 
0.12917 
0.14701 
0.14701 
0.15158 
0.15158 
0.23013 
0.23013 
0.09823 
0.09823 
0.10792 
0.10792 
0.19512 
0.19512 
0.24070 
0.24070 
0.16128 
0.16128 
0.11403 
0.11403 
0.12777 
0.12777 
0.07303 
0.07303 
0.09025 
0.09025 
0.09056 
0.09056 
0.09951 
0.09951 
0.18170 
0.18170 
0.20990 
0.20990 
0.04920 
0.04920 
0.20988 
0.20988 
0.18225 
0.18225 
0.12184 
0.12184 
0.30828 
0.30828 
0.19237 
0.19237 
0.16826 
0.16826 
0.14374 
0.14374 
0.13861 
0.13861 
0.07932 
0.07932 
0.17715 
0.17715 
0.25644 
0.25644 
0.19961 
0.19961 
0.14869 
0.14869 
0.11277 
0.11277 
0.12507 
0.12507 
0.22969 
0.22969 
0.11611 
0.11611 
0.36749 
0.36749 
0.12005 
0.12005 
0.20981 
0.20981 
0.13942 
0.13942 
0.12948 
0.12948 
0.11580 
0.11580 
0.19763 
0.19763 
0.13237 
0.13237 
0.10898 
0.10898 
0.10922 
0.10922 
0.21038 
0.21038 
0.29265 
0.29265 
0.16782 
0.16782 
0.25147 
0.25147 
0.07795 
0.07795 
0.09259 
0.09259 
0.11401 
0.11401 
0.15560 
0.15560 
0.18439 
0.18439 
0.19105 
0.19105 
0.24591 
0.24591 
0.14915 
0.14915 
0.08392 
0.08392 
0.19375 
0.19375 
0.21255 
0.21255 
0.26030 
0.26030 
0.24016 
0.24016 
0.25140 
0.25140 
0.23543 
0.23543 
0.14226 
0.14226 
0.14818 
0.14818 
0.11504 
0.11504 
0.08669 
0.08669 
0.25889 
0.25889 
0.08927 
0.08927 
0.29486 
0.29486 
0.13493 
0.13493 
0.14407 
0.14407 
0.10733 
0.10733 
0.08233 
0.08233 
0.09513 
0.09513 
0.20218 
0.20218 
0.16212 
0.16212 
0.25707 
0.25707 
0.21387 
0.21387 
0.11120 
0.11120 
0.13547 
0.13547 
0.20090 
0.20090 
0.08138 
0.08138 
0.10093 
0.10093 
0.02873 
0.02873 
0.20273 
0.20273 
0.19420 
0.19420 
0.08841 
0.08841 
0.25707 
0.25707 
0.26050 
0.26050 
0.32626 
0.32626 
0.18114 
0.18114 
0.14486 
0.14486 
0.09769 
0.09769 
0.10507 
0.10507 
0.16881 
0.16881 
0.18625 
0.18625 
0.12796 
0.12796 
0.08059 
0.08059 
0.12767 
0.12767 
0.06541 
0.06541 
0.19775 
0.19775 
0.15180 
0.15180 
0.06478 
0.06478 
0.19107 
0.19107 
0.23146 
0.23146 
0.09441 
0.09441 
0.21623 
0.21623 
0.14273 
0.14273 
0.14423 
0.14423 
0.10605 
0.10605 
0.07936 
0.07936 
0.04675 
0.04675 
0.21199 
0.21199 
0.11013 
0.11013 
0.11148 
0.11148 
0.18542 
0.18542 
0.15646 
0.15646 
0.13506 
0.13506 
0.14623 
0.14623 
0.14514 
0.14514 
0.12518 
0.12518 
0.05876 
0.05876 
0.18776 
0.18776 
0.12152 
0.12152 
0.15750 
0.15750 
0.08273 
0.08273 
0.17624 
0.17624 
0.21325 
0.21325 
0.29793 
0.29793 
0.19146 
0.19146 
0.16420 
0.16420 
0.10585 
0.10585 
0.09087 
0.09087 
0.12792 
0.12792 
0.10724 
0.10724 
0.14479 
0.14479 
0.19950 
0.19950 
0.27427 
0.27427 
0.11889 
0.11889 
0.15095 
0.15095 
0.16862 
0.16862 
0.11953 
0.11953 
0.11368 
0.11368 
0.11501 
0.11501 
0.20576 
0.20576 
0.17075 
0.17075 
0.09339 
0.09339 
0.16595 
0.16595 
0.06968 
0.06968 
0.07900 
0.07900 
0.23173 
0.23173 
0.23197 
0.23197 
0.28653 
0.28653 
0.14777 
0.14777 
0.19695 
0.19695 
0.16324 
0.16324 
0.12311 
0.12311 
0.26168 
0.26168 
0.05484 
0.05484 
0.19519 
0.19519 
0.03684 
0.03684 
0.08072 
0.08072 
0.19127 
0.19127 
0.04862 
0.04862 
0.19011 
0.19011 
0.19678 
0.19678 
0.09598 
0.09598 
0.06069 
0.06069 
0.08820 
0.08820 
0.08907 
0.08907 
0.22473 
0.22473 
0.11273 
0.11273 
0.12953 
0.12953 
0.07997 
0.07997 
0.09652 
0.09652 
0.12072 
0.12072 
0.23566 
0.23566 
0.16485 
0.16485 
0.07725 
0.07725 
0.19254 
0.19254 
0.08651 
0.08651 
0.08819 
0.08819 
0.11023 
0.11023 
0.11785 
0.11785 
0.20166 
0.20166 
0.22607 
0.22607 
0.14639 
0.14639 
0.17105 
0.17105 
0.08502 
0.08502 
0.10848 
0.10848 
0.10569 
0.10569 
0.10866 
0.10866 
0.24438 
0.24438 
0.27822 
0.27822 
0.07027 
0.07027 
0.11887 
0.11887 
0.06535 
0.06535 
0.20090 
0.20090 
0.11114 
0.11114 
0.19823 
0.19823 
0.13177 
0.13177 
0.11240 
0.11240 
0.04369 
0.04369 
0.16919 
0.16919 
0.08050 
0.08050 
0.21946 
0.21946 
0.24001 
0.24001 
0.23825 
0.23825 
0.20437 
0.20437 
0.04901 
0.04901 
0.24278 
0.24278 
0.21951 
0.21951 
0.10236 
0.10236 
0.11429 
0.11429 
0.27754 
0.27754 
0.21016 
0.21016 
0.14267 
0.14267 
0.06480 
0.06480 
0.18825 
0.18825 
0.17016 
0.17016 
0.29296 
0.29296 
0.27557 
0.27557 
0.16678 
0.16678 
0.06229 
0.06229 
0.08373 
0.08373 
0.10919 
0.10919 
0.14716 
0.14716 
0.15157 
0.15157 
0.15262 
0.15262 
0.20924 
0.20924 
0.18186 
0.18186 
0.06098 
0.06098 
0.12514 
0.12514 
0.20889 
0.20889 
0.11338 
0.11338 
0.12517 
0.12517 
0.17130 
0.17130 
0.12448 
0.12448 
0.08882 
0.08882 
0.13496 
0.13496 
0.08842 
0.08842 
0.11258 
0.11258 
0.15763 
0.15763 
0.11059 
0.11059 
0.17943 
0.17943 
0.05053 
0.05053 
0.17338 
0.17338 
0.12334 
0.12334 
0.16989 
0.16989 
0.16753 
0.16753 
0.14168 
0.14168 
0.21074 
0.21074 
0.18735 
0.18735 
0.20465 
0.20465 
0.14025 
0.14025 
0.19571 
0.19571 
0.17784 
0.17784 
0.17805 
0.17805 
0.09813 
0.09813 
0.13280 
0.13280 
0.13923 
0.13923 
0.16542 
0.16542 
0.17669 
0.17669 
0.07374 
0.07374 
0.16941 
0.16941 
0.11608 
0.11608 
0.12741 
0.12741 
0.27456 
0.27456 
0.23158 
0.23158 
0.22346 
0.22346 
0.19278 
0.19278 
0.11167 
0.11167 
0.15939 
0.15939 
0.15280 
0.15280 
0.10527 
0.10527 
0.08212 
0.08212 
0.17898 
0.17898 
0.20124 
0.20124 
0.09586 
0.09586 
0.22420 
0.22420 
0.19153 
0.19153 
0.26792 
0.26792 
0.18279 
0.18279 
0.19125 
0.19125 
0.05927 
0.05927 
0.10773 
0.10773 
0.21832 
0.21832 
0.10105 
0.10105 
0.19080 
0.19080 
0.05166 
0.05166 
0.24391 
0.24391 
0.23682 
0.23682 
0.22662 
0.22662 
0.16407 
0.16407 
0.21956 
0.21956 
0.19657 
0.19657 
0.09415 
0.09415 
0.11724 
0.11724 
0.11885 
0.11885 
0.14686 
0.14686 
0.15105 
0.15105 
0.09314 
0.09314 
0.13429 
0.13429 
0.27265 
0.27265 
0.20749 
0.20749 
0.10929 
0.10929 
0.17698 
0.17698 
0.17926 
0.17926 
0.18644 
0.18644 
0.21732 
0.21732 
0.07693 
0.07693 
0.18130 
0.18130 
0.17977 
0.17977 
0.08691 
0.08691 
0.04946 
0.04946 
0.20456 
0.20456 
0.25753 
0.25753 
0.08242 
0.08242 
0.20331 
0.20331 
0.29611 
0.29611 
0.21019 
0.21019 
0.16158 
0.16158 
0.12838 
0.12838 
0.19381 
0.19381 
0.09544 
0.09544 
0.18917 
0.18917 
0.27136 
0.27136 
0.11131 
0.11131 
0.09400 
0.09400 
0.14367 
0.14367 
0.18635 
0.18635 
0.12076 
0.12076 
0.08796 
0.08796 
0.11475 
0.11475 
0.06203 
0.06203 
0.14072 
0.14072 
0.18801 
0.18801 
0.09491 
0.09491 
0.16942 
0.16942 
0.09070 
0.09070 
0.13379 
0.13379 
0.14033 
0.14033 
0.09504 
0.09504 
0.04208 
0.04208 
0.20306 
0.20306 
0.14248 
0.14248 
0.20074 
0.20074 
0.20575 
0.20575 
0.11109 
0.11109 
0.08631 
0.08631 
0.09817 
0.09817 
0.10934 
0.10934 
0.17541 
0.17541 
0.14799 
0.14799 
0.13507 
0.13507 
0.08321 
0.08321 
0.18596 
0.18596 
0.04902 
0.04902 
0.23758 
0.23758 
0.23516 
0.23516 
0.11397 
0.11397 
0.19792 
0.19792 
0.12093 
0.12093 
0.14139 
0.14139 
0.16218 
0.16218 
0.10128 
0.10128 
0.15829 
0.15829 
0.19685 
0.19685 
0.16272 
0.16272 
0.18714 
0.18714 
0.15590 
0.15590 
0.09853 
0.09853 
0.11236 
0.11236 
0.21634 
0.21634 
0.21072 
0.21072 
0.16948 
0.16948 
0.23879 
0.23879 
0.10154 
0.10154 
0.28216 
0.28216 
0.25866 
0.25866 
0.05436 
0.05436 
0.16056 
0.16056 
0.14308 
0.14308 
0.15433 
0.15433 
0.14238 
0.14238 
0.27531 
0.27531 
0.19858 
0.19858 
0.17473 
0.17473 
0.26531 
0.26531 
0.26807 
0.26807 
0.14923 
0.14923 
0.15137 
0.15137 
0.04924 
0.04924 
0.16285 
0.16285 
0.07956 
0.07956 
0.07060 
0.07060 
0.18806 
0.18806 
0.07109 
0.07109 
0.13690 
0.13690 
0.15781 
0.15781 
0.26832 
0.26832 
0.05657 
0.05657 
0.12753 
0.12753 
0.04794 
0.04794 
0.27553 
0.27553 
0.26684 
0.26684 
0.22333 
0.22333 
0.26577 
0.26577 
0.12757 
0.12757 
0.14178 
0.14178 
0.18310 
0.18310 
0.07042 
0.07042 
0.11720 
0.11720 
0.15731 
0.15731 
0.01693 
0.01693 
0.25855 
0.25855 
0.17040 
0.17040 
0.04011 
0.04011 
0.15219 
0.15219 
0.13567 
0.13567 
0.12710 
0.12710 
0.05996 
0.05996 
0.14178 
0.14178 
0.12363 
0.12363 
0.09109 
0.09109 
0.18451 
0.18451 
0.18359 
0.18359 
0.12632 
0.12632 
0.22971 
0.22971 
0.11159 
0.11159 
0.08557 
0.08557 
0.18642 
0.18642 
0.12860 
0.12860 
0.13165 
0.13165 
0.23664 
0.23664 
0.20640 
0.20640 
0.13205 
0.13205 
0.13181 
0.13181 
0.24634 
0.24634 
0.23179 
0.23179 
0.22415 
0.22415 
0.15935 
0.15935 
0.28469 
0.28469 
SCALARS Umean_X double 1 
LOOKUP_TABLE default
0.10250 
0.10250 
-0.00050 
-0.00050 
-0.06000 
-0.06000 
0.06250 
0.06250 
0.09800 
0.09800 
-0.03650 
-0.03650 
0.01500 
0.01500 
0.02750 
0.02750 
0.09350 
0.09350 
0.00800 
0.00800 
0.11200 
0.11200 
0.09300 
0.09300 
-0.00450 
-0.00450 
0.07750 
0.07750 
0.03200 
0.03200 
0.14250 
0.14250 
-0.01500 
-0.01500 
-0.07250 
-0.07250 
0.06550 
0.06550 
0.04600 
0.04600 
0.00300 
0.00300 
0.02000 
0.02000 
0.05700 
0.05700 
0.07400 
0.07400 
0.03850 
0.03850 
0.09450 
0.09450 
0.08300 
0.08300 
0.04650 
0.04650 
0.00850 
0.00850 
0.08050 
0.08050 
0.09000 
0.09000 
0.06050 
0.06050 
0.03450 
0.03450 
0.08150 
0.08150 
-0.13950 
-0.13950 
0.13400 
0.13400 
-0.07950 
-0.07950 
0.09200 
0.09200 
0.03750 
0.03750 
-0.00400 
-0.00400 
-0.07300 
-0.07300 
0.03400 
0.03400 
0.07100 
0.07100 
0.07900 
0.07900 
0.14050 
0.14050 
-0.01550 
-0.01550 
0.08100 
0.08100 
-0.05050 
-0.05050 
0.09800 
0.09800 
0.04200 
0.04200 
0.03500 
0.03500 
-0.11000 
-0.11000 
0.04100 
0.04100 
0.07100 
0.07100 
-0.02300 
-0.02300 
0.03850 
0.03850 
0.09550 
0.09550 
0.15600 
0.15600 
-0.14750 
-0.14750 
0.05400 
0.05400 
0.09400 
0.09400 
0.15250 
0.15250 
0.08050 
0.08050 
0.08550 
0.08550 
-0.09600 
-0.09600 
0.09350 
0.09350 
-0.00100 
-0.00100 
-0.03050 
-0.03050 
0.04450 
0.04450 
0.05600 
0.05600 
-0.02250 
-0.02250 
0.08550 
0.08550 
0.09200 
0.09200 
0.11550 
0.11550 
0.14400 
0.14400 
0.04900 
0.04900 
-0.03050 
-0.03050 
0.02450 
0.02450 
0.06450 
0.06450 
-0.03950 
-0.03950 
0.10050 
0.10050 
0.02550 
0.02550 
0.06300 
0.06300 
0.04100 
0.04100 
0.10700 
0.10700 
0.05950 
0.05950 
0.06900 
0.06900 
-0.01250 
-0.01250 
0.14300 
0.14300 
-0.04050 
-0.04050 
0.09450 
0.09450 
0.11450 
0.11450 
0.11250 
0.11250 
0.10800 
0.10800 
-0.00150 
-0.00150 
-0.01550 
-0.01550 
0.16850 
0.16850 
0.04700 
0.04700 
-0.04950 
-0.04950 
0.08550 
0.08550 
-0.07850 
-0.07850 
0.09900 
0.09900 
0.04250 
0.04250 
-0.00850 
-0.00850 
0.04200 
0.04200 
0.11450 
0.11450 
0.17550 
0.17550 
0.06350 
0.06350 
0.08200 
0.08200 
0.01700 
0.01700 
0.12750 
0.12750 
0.00900 
0.00900 
0.09500 
0.09500 
-0.00100 
-0.00100 
0.04400 
0.04400 
-0.18450 
-0.18450 
0.01300 
0.01300 
0.11850 
0.11850 
0.12900 
0.12900 
0.08850 
0.08850 
-0.08100 
-0.08100 
0.07400 
0.07400 
0.03750 
0.03750 
0.04050 
0.04050 
0.10150 
0.10150 
0.10150 
0.10150 
0.03750 
0.03750 
-0.07400 
-0.07400 
0.03450 
0.03450 
0.01950 
0.01950 
0.02400 
0.02400 
0.03000 
0.03000 
0.04350 
0.04350 
0.00700 
0.00700 
0.12850 
0.12850 
0.03850 
0.03850 
0.06150 
0.06150 
0.11300 
0.11300 
0.05100 
0.05100 
0.03450 
0.03450 
-0.00600 
-0.00600 
0.00900 
0.00900 
0.16900 
0.16900 
0.10150 
0.10150 
0.05750 
0.05750 
-0.08050 
-0.08050 
0.14400 
0.14400 
0.05600 
0.05600 
0.10600 
0.10600 
0.11800 
0.11800 
-0.11050 
-0.11050 
-0.05400 
-0.05400 
0.13400 
0.13400 
0.04400 
0.04400 
0.10850 
0.10850 
-0.03650 
-0.03650 
0.03300 
0.03300 
0.03300 
0.03300 
0.01900 
0.01900 
-0.12650 
-0.12650 
0.10350 
0.10350 
0.07150 
0.07150 
0.07300 
0.07300 
0.11850 
0.11850 
0.03200 
0.03200 
0.08900 
0.08900 
0.02700 
0.02700 
0.11750 
0.11750 
0.07500 
0.07500 
0.13250 
0.13250 
0.02000 
0.02000 
0.02250 
0.02250 
0.05600 
0.05600 
0.07050 
0.07050 
0.05200 
0.05200 
0.10100 
0.10100 
0.03400 
0.03400 
-0.08150 
-0.08150 
0.02650 
0.02650 
-0.04600 
-0.04600 
0.16000 
0.16000 
0.00300 
0.00300 
0.24400 
0.24400 
-0.01550 
-0.01550 
0.06800 
0.06800 
0.02150 
0.02150 
0.06800 
0.06800 
0.12200 
0.12200 
-0.01350 
-0.01350 
0.01750 
0.01750 
-0.00350 
-0.00350 
0.07850 
0.07850 
0.17350 
0.17350 
-0.02850 
-0.02850 
0.01650 
0.01650 
0.06400 
0.06400 
0.09200 
0.09200 
-0.01900 
-0.01900 
0.07850 
0.07850 
-0.03150 
-0.03150 
0.11600 
0.11600 
0.03700 
0.03700 
-0.12250 
-0.12250 
-0.04100 
-0.04100 
-0.03850 
-0.03850 
0.02100 
0.02100 
0.10200 
0.10200 
0.02450 
0.02450 
0.06700 
0.06700 
0.05400 
0.05400 
-0.00150 
-0.00150 
0.05300 
0.05300 
0.07850 
0.07850 
0.08850 
0.08850 
0.05700 
0.05700 
-0.09500 
-0.09500 
0.03650 
0.03650 
0.05150 
0.05150 
0.00050 
0.00050 
-0.04250 
-0.04250 
-0.08850 
-0.08850 
-0.02450 
-0.02450 
0.10300 
0.10300 
0.08900 
0.08900 
0.02150 
0.02150 
0.00200 
0.00200 
0.03800 
0.03800 
0.00550 
0.00550 
0.01000 
0.01000 
0.02000 
0.02000 
0.11800 
0.11800 
0.08450 
0.08450 
0.03300 
0.03300 
0.07200 
0.07200 
0.01800 
0.01800 
0.12250 
0.12250 
0.17450 
0.17450 
0.11950 
0.11950 
0.09100 
0.09100 
-0.02150 
-0.02150 
-0.01000 
-0.01000 
0.03050 
0.03050 
-0.09350 
-0.09350 
0.01950 
0.01950 
0.10850 
0.10850 
-0.06250 
-0.06250 
0.09050 
0.09050 
0.05500 
0.05500 
0.08650 
0.08650 
0.10750 
0.10750 
0.05000 
0.05000 
-0.00500 
-0.00500 
0.01800 
0.01800 
0.02500 
0.02500 
0.06200 
0.06200 
0.06300 
0.06300 
0.11750 
0.11750 
-0.07550 
-0.07550 
0.03400 
0.03400 
0.11450 
0.11450 
0.05300 
0.05300 
-0.02650 
-0.02650 
0.08100 
0.08100 
0.16300 
0.16300 
0.05500 
0.05500 
-0.03550 
-0.03550 
0.02500 
0.02500 
0.01000 
0.01000 
0.07350 
0.07350 
0.08800 
0.08800 
0.06850 
0.06850 
0.06700 
0.06700 
0.07000 
0.07000 
0.09950 
0.09950 
0.14850 
0.14850 
0.00650 
0.00650 
0.14200 
0.14200 
0.02350 
0.02350 
0.03600 
0.03600 
0.12000 
0.12000 
0.05700 
0.05700 
0.04300 
0.04300 
0.14100 
0.14100 
0.05700 
0.05700 
-0.03850 
-0.03850 
0.01000 
0.01000 
0.11900 
0.11900 
0.05600 
0.05600 
0.02800 
0.02800 
0.01250 
0.01250 
-0.01350 
-0.01350 
0.14850 
0.14850 
-0.01150 
-0.01150 
-0.06700 
-0.06700 
0.02700 
0.02700 
-0.04650 
-0.04650 
0.00500 
0.00500 
0.15600 
0.15600 
0.10550 
0.10550 
-0.03800 
-0.03800 
0.04300 
0.04300 
-0.09000 
-0.09000 
0.10450 
0.10450 
0.11050 
0.11050 
0.10400 
0.10400 
-0.02000 
-0.02000 
0.05600 
0.05600 
0.19650 
0.19650 
0.08850 
0.08850 
0.15650 
0.15650 
0.10250 
0.10250 
0.13650 
0.13650 
0.02000 
0.02000 
0.07950 
0.07950 
-0.00400 
-0.00400 
-0.09350 
-0.09350 
0.05550 
0.05550 
0.07400 
0.07400 
0.09500 
0.09500 
-0.03600 
-0.03600 
0.05050 
0.05050 
0.07900 
0.07900 
0.01200 
0.01200 
0.05100 
0.05100 
0.11100 
0.11100 
0.14700 
0.14700 
0.08350 
0.08350 
0.10950 
0.10950 
0.00600 
0.00600 
0.09500 
0.09500 
0.07650 
0.07650 
-0.01050 
-0.01050 
0.07650 
0.07650 
0.12250 
0.12250 
0.02000 
0.02000 
0.02850 
0.02850 
0.08350 
0.08350 
0.14800 
0.14800 
0.01150 
0.01150 
0.16300 
0.16300 
0.04350 
0.04350 
-0.02550 
-0.02550 
0.16400 
0.16400 
0.07000 
0.07000 
0.02250 
0.02250 
-0.13650 
-0.13650 
0.06250 
0.06250 
0.06350 
0.06350 
0.01800 
0.01800 
0.20650 
0.20650 
0.13900 
0.13900 
0.15150 
0.15150 
0.11400 
0.11400 
0.08300 
0.08300 
-0.09250 
-0.09250 
0.10550 
0.10550 
0.15050 
0.15050 
0.02800 
0.02800 
-0.00050 
-0.00050 
0.04300 
0.04300 
0.04200 
0.04200 
0.01900 
0.01900 
0.06950 
0.06950 
-0.02300 
-0.02300 
-0.02400 
-0.02400 
0.04050 
0.04050 
0.07750 
0.07750 
0.06050 
0.06050 
0.02150 
0.02150 
-0.00900 
-0.00900 
0.01150 
0.01150 
0.05350 
0.05350 
-0.04950 
-0.04950 
0.03800 
0.03800 
0.10650 
0.10650 
0.04950 
0.04950 
0.09600 
0.09600 
0.06050 
0.06050 
0.01550 
0.01550 
0.04200 
0.04200 
-0.03500 
-0.03500 
-0.06150 
-0.06150 
-0.00450 
-0.00450 
0.04200 
0.04200 
0.02600 
0.02600 
-0.03300 
-0.03300 
0.03350 
0.03350 
0.04300 
0.04300 
0.13450 
0.13450 
0.10200 
0.10200 
0.04200 
0.04200 
0.07700 
0.07700 
0.06000 
0.06000 
0.04850 
0.04850 
0.06600 
0.06600 
-0.02000 
-0.02000 
-0.00950 
-0.00950 
0.16950 
0.16950 
0.11500 
0.11500 
-0.02050 
-0.02050 
-0.01100 
-0.01100 
0.06000 
0.06000 
0.09950 
0.09950 
0.07050 
0.07050 
0.05300 
0.05300 
0.06850 
0.06850 
0.12150 
0.12150 
-0.05700 
-0.05700 
0.19650 
0.19650 
0.09600 
0.09600 
0.04850 
0.04850 
-0.04500 
-0.04500 
-0.00050 
-0.00050 
-0.07350 
-0.07350 
0.02250 
0.02250 
0.03500 
0.03500 
-0.02600 
-0.02600 
0.10450 
0.10450 
0.09800 
0.09800 
0.12350 
0.12350 
0.08850 
0.08850 
0.09250 
0.09250 
0.02400 
0.02400 
0.02500 
0.02500 
0.04500 
0.04500 
0.06450 
0.06450 
0.01000 
0.01000 
-0.03950 
-0.03950 
0.08650 
0.08650 
0.03250 
0.03250 
0.16200 
0.16200 
-0.02400 
-0.02400 
0.06150 
0.06150 
-0.00100 
-0.00100 
0.13100 
0.13100 
0.17550 
0.17550 
0.11800 
0.11800 
0.09900 
0.09900 
0.06200 
0.06200 
0.03100 
0.03100 
0.11500 
0.11500 
0.04950 
0.04950 
0.06050 
0.06050 
-0.06000 
-0.06000 
-0.00150 
-0.00150 
0.05850 
0.05850 
0.10900 
0.10900 
0.03250 
0.03250 
-0.05800 
-0.05800 
0.10400 
0.10400 
0.05700 
0.05700 
0.02400 
0.02400 
0.13450 
0.13450 
-0.10000 
-0.10000 
-0.01500 
-0.01500 
-0.10850 
-0.10850 
0.05050 
0.05050 
0.04000 
0.04000 
0.09300 
0.09300 
0.10050 
0.10050 
0.00700 
0.00700 
0.15750 
0.15750 
0.00300 
0.00300 
0.03250 
0.03250 
0.16300 
0.16300 
-0.00050 
-0.00050 
-0.00950 
-0.00950 
0.08650 
0.08650 
-0.12600 
-0.12600 
0.04550 
0.04550 
0.04600 
0.04600 
0.08100 
0.08100 
0.11450 
0.11450 
SCALARS Umean_Y double 1 
LOOKUP_TABLE default
0.09700 
0.09700 
0.17050 
0.17050 
0.02700 
0.02700 
0.16250 
0.16250 
0.10100 
0.10100 
0.04750 
0.04750 
0.05300 
0.05300 
0.09700 
0.09700 
0.07850 
0.07850 
0.03200 
0.03200 
0.06250 
0.06250 
0.09100 
0.09100 
0.11050 
0.11050 
0.06900 
0.06900 
0.08650 
0.08650 
0.07150 
0.07150 
-0.00800 
-0.00800 
0.03450 
0.03450 
0.05950 
0.05950 
0.01400 
0.01400 
-0.01300 
-0.01300 
0.06750 
0.06750 
0.04500 
0.04500 
0.02400 
0.02400 
0.03600 
0.03600 
0.08850 
0.08850 
0.10000 
0.10000 
0.05350 
0.05350 
-0.01000 
-0.01000 
0.03300 
0.03300 
0.09500 
0.09500 
0.04700 
0.04700 
-0.06300 
-0.06300 
-0.04050 
-0.04050 
-0.05900 
-0.05900 
-0.03700 
-0.03700 
-0.08650 
-0.08650 
0.06150 
0.06150 
0.01250 
0.01250 
-0.04900 
-0.04900 
0.05300 
0.05300 
0.01250 
0.01250 
0.06850 
0.06850 
0.09600 
0.09600 
0.02750 
0.02750 
-0.04600 
-0.04600 
0.15650 
0.15650 
0.11450 
0.11450 
0.06000 
0.06000 
0.04200 
0.04200 
0.16500 
0.16500 
0.10700 
0.10700 
0.10600 
0.10600 
0.11700 
0.11700 
-0.02250 
-0.02250 
0.10550 
0.10550 
0.07150 
0.07150 
0.12400 
0.12400 
0.01250 
0.01250 
-0.00000 
-0.00000 
0.05500 
0.05500 
0.16750 
0.16750 
0.08000 
0.08000 
0.20250 
0.20250 
0.04600 
0.04600 
0.08400 
0.08400 
-0.01600 
-0.01600 
0.07300 
0.07300 
0.06800 
0.06800 
0.10000 
0.10000 
-0.04200 
-0.04200 
0.03550 
0.03550 
-0.01000 
-0.01000 
0.09650 
0.09650 
0.03750 
0.03750 
0.12750 
0.12750 
-0.06500 
-0.06500 
-0.02250 
-0.02250 
-0.02250 
-0.02250 
0.05100 
0.05100 
-0.05650 
-0.05650 
-0.05700 
-0.05700 
0.10450 
0.10450 
0.19050 
0.19050 
0.01700 
0.01700 
0.05750 
0.05750 
0.15350 
0.15350 
0.10300 
0.10300 
0.03600 
0.03600 
0.05800 
0.05800 
0.04000 
0.04000 
0.04600 
0.04600 
0.06450 
0.06450 
0.05050 
0.05050 
0.09050 
0.09050 
0.06300 
0.06300 
0.00450 
0.00450 
-0.01450 
-0.01450 
0.07050 
0.07050 
0.00900 
0.00900 
-0.12050 
-0.12050 
0.03450 
0.03450 
0.07050 
0.07050 
0.06700 
0.06700 
0.09850 
0.09850 
0.10100 
0.10100 
0.17850 
0.17850 
0.00950 
0.00950 
0.07500 
0.07500 
0.13250 
0.13250 
0.15500 
0.15500 
0.01950 
0.01950 
0.03150 
0.03150 
0.02350 
0.02350 
-0.02350 
-0.02350 
-0.05450 
-0.05450 
0.05850 
0.05850 
0.04050 
0.04050 
0.14650 
0.14650 
-0.00450 
-0.00450 
0.04000 
0.04000 
0.06850 
0.06850 
0.06950 
0.06950 
0.08150 
0.08150 
0.13400 
0.13400 
0.11650 
0.11650 
0.05250 
0.05250 
-0.01700 
-0.01700 
-0.10700 
-0.10700 
0.03300 
0.03300 
0.07100 
0.07100 
0.13050 
0.13050 
-0.01800 
-0.01800 
0.11150 
0.11150 
0.00250 
0.00250 
-0.02950 
-0.02950 
0.12550 
0.12550 
0.07000 
0.07000 
0.06450 
0.06450 
0.04900 
0.04900 
0.07850 
0.07850 