# vtk DataFile Version 2.1 
Trajects from timestep 192 with color option 
ASCII 
 
DATASET POLYDATA POINTS 898 float 
6.090 5.632 -71.953 
5.989 5.493 -72.046 
0.121 6.250 -73.747 
0.090 6.194 -73.967 
1.093 5.296 -70.283 
1.191 5.315 -70.416 
2.743 3.911 -71.725 
2.794 3.751 -71.869 
-6.894 -1.067 -73.867 
-6.706 -0.900 -73.801 
10.789 4.290 -71.642 
10.901 4.300 -71.927 
5.863 -0.053 -68.904 
5.886 -0.081 -69.102 
-4.192 -3.254 -69.629 
-4.070 -3.055 -69.762 
4.230 2.693 -71.720 
4.279 2.552 -71.844 
-6.797 -2.043 -71.119 
-6.588 -1.706 -71.218 
-3.175 2.858 -67.697 
-2.948 3.203 -67.843 
3.509 1.748 -69.766 
3.634 1.515 -69.863 
-8.680 6.786 -74.694 
-8.634 6.959 -74.794 
-2.191 10.140 -70.404 
-2.285 10.475 -70.511 
-13.736 6.978 -76.868 
-13.737 6.980 -77.241 
1.542 10.981 -67.931 
1.122 10.619 -68.011 
-5.070 -1.925 -70.855 
-5.029 -1.765 -70.980 
2.263 3.292 -68.391 
2.439 3.186 -68.451 
-11.773 -4.481 -72.426 
-11.720 -4.371 -72.619 
-6.676 -1.381 -68.861 
-6.605 -1.225 -69.024 
4.778 4.135 -68.405 
4.720 4.153 -68.538 
1.430 0.360 -69.577 
1.441 0.486 -69.885 
2.994 6.110 -71.747 
2.783 6.045 -71.879 
-8.368 5.174 -69.420 
-8.195 5.132 -69.485 
-4.036 -6.280 -70.026 
-3.630 -6.102 -69.944 
-0.127 10.549 -70.344 
-0.348 10.539 -70.226 
-1.635 -6.027 -67.991 
-1.568 -5.986 -68.000 
-7.515 4.042 -67.060 
-7.275 4.391 -67.037 
-3.497 6.419 -68.124 
-3.362 6.517 -68.085 
-0.739 -0.650 -67.541 
-0.733 -0.481 -67.741 
-6.363 6.941 -66.546 
-6.371 7.134 -66.459 
-2.144 -3.669 -69.331 
-2.095 -3.498 -69.522 
3.165 -4.874 -70.252 
3.222 -5.012 -70.538 
5.115 -5.200 -72.714 
5.362 -5.260 -73.029 
-0.512 -2.261 -67.109 
-0.566 -2.159 -67.373 
-1.647 -7.718 -66.246 
-1.780 -7.485 -65.908 
0.858 7.504 -66.236 
1.012 7.600 -66.213 
-12.161 -12.165 -71.196 
-12.016 -12.128 -71.384 
1.296 -2.960 -72.590 
1.304 -2.884 -72.830 
-3.421 6.242 -63.199 
-3.393 6.441 -62.795 
-8.528 -8.427 -71.273 
-8.430 -8.323 -71.514 
2.929 9.556 -66.419 
2.621 9.440 -66.448 
8.824 1.124 -69.593 
8.862 1.258 -69.884 
5.956 5.109 -65.170 
5.816 5.132 -65.319 
-7.172 -7.303 -68.073 
-7.117 -7.305 -68.252 
0.580 -9.053 -73.095 
0.774 -9.052 -73.260 
-0.066 10.320 -64.957 
-0.203 10.542 -64.818 
-2.050 6.981 -66.270 
-2.072 7.073 -66.019 
6.612 -0.249 -74.897 
6.821 -0.313 -75.185 
2.474 0.064 -71.154 
2.559 0.230 -71.351 
14.180 -3.845 -71.865 
14.054 -3.798 -72.227 
3.303 -8.361 -62.575 
3.170 -8.270 -62.873 
-0.822 -7.846 -67.423 
-0.920 -7.854 -67.420 
3.971 -6.621 -73.189 
4.200 -6.440 -73.311 
0.053 -2.960 -70.626 
0.114 -2.810 -70.662 
-7.024 3.160 -61.964 
-7.277 3.256 -62.017 
-5.788 -6.994 -65.556 
-5.857 -7.026 -65.698 
-0.576 -7.136 -63.180 
-0.614 -7.273 -63.435 
-9.092 -12.282 -69.802 
-9.058 -12.178 -69.590 
-0.254 -6.517 -69.992 
-0.134 -6.389 -70.118 
3.704 -8.147 -67.278 
3.717 -8.002 -67.194 
-5.552 -0.136 -62.975 
-5.542 -0.097 -63.533 
-3.410 -11.748 -71.644 
-3.209 -11.686 -71.719 
-10.044 -7.111 -65.212 
-10.086 -7.110 -65.394 
9.690 0.945 -64.443 
9.742 1.103 -64.630 
0.682 -10.335 -62.647 
0.621 -10.262 -62.718 
1.823 -6.571 -72.414 
1.986 -6.349 -72.433 
-4.214 1.601 -67.735 
-3.998 1.855 -67.896 
-10.812 1.122 -67.022 
-10.884 1.511 -67.345 
1.022 -12.016 -69.780 
1.172 -12.076 -69.751 
-4.399 -6.398 -63.788 
-4.418 -6.489 -63.916 
11.159 4.351 -67.557 
11.129 4.521 -67.613 
0.279 5.423 -65.028 
0.489 5.461 -65.114 
8.007 4.127 -73.442 
8.307 4.025 -73.708 
-3.742 -8.586 -69.437 
-3.427 -8.550 -69.422 
-10.021 2.096 -62.453 
-10.250 2.146 -62.828 
0.787 6.208 -72.524 
0.731 6.171 -72.731 
8.699 -4.215 -71.708 
8.773 -4.090 -71.851 
6.318 2.110 -67.454 
6.393 2.163 -67.422 
-13.200 -3.318 -67.140 
-13.182 -3.273 -67.275 
4.757 -6.126 -71.555 
4.899 -6.259 -71.838 
8.471 1.762 -68.849 
8.481 1.916 -69.085 
3.920 0.468 -61.850 
4.001 0.496 -61.837 
-0.509 12.623 -66.773 
-0.781 12.406 -66.894 
0.601 -1.719 -64.067 
0.498 -1.811 -64.234 
-10.300 9.365 -70.874 
-10.259 9.172 -70.798 
8.969 -5.591 -68.941 
9.066 -5.761 -68.992 
-2.793 -7.958 -63.738 
-2.898 -8.206 -63.799 
-11.205 8.466 -75.618 
-11.136 8.630 -76.012 
6.750 -8.176 -62.976 
6.604 -8.009 -62.879 
0.242 4.639 -64.533 
0.416 4.600 -64.734 
-10.119 -2.371 -67.539 
-9.972 -2.288 -67.594 
3.761 -0.457 -64.737 
3.783 -0.295 -64.878 
1.107 -7.304 -66.603 
1.050 -7.293 -66.971 
0.484 3.471 -63.546 
0.407 3.492 -63.577 
8.698 -1.110 -66.079 
8.739 -1.065 -66.478 
-0.590 2.993 -63.722 
-0.533 3.057 -63.702 
1.931 -11.817 -68.810 
2.188 -11.787 -68.706 
-10.306 -2.831 -73.967 
-10.196 -2.606 -74.228 
-9.478 9.311 -66.203 
-9.615 9.632 -66.116 
14.554 -4.454 -72.182 
14.572 -4.412 -72.425 
-6.665 -0.892 -63.570 
-6.862 -0.985 -64.008 
-11.760 10.545 -68.724 
-11.719 11.087 -68.749 
11.264 -6.237 -66.511 
11.059 -6.200 -66.805 
-6.733 12.535 -67.329 
-7.079 12.604 -67.163 
-3.289 4.381 -64.131 
-3.237 4.379 -63.985 
6.165 -11.888 -66.506 
6.341 -11.730 -66.451 
3.078 7.367 -63.280 
3.116 7.512 -63.150 
-3.429 -5.076 -66.759 
-3.487 -5.096 -67.163 
12.603 5.642 -71.508 
12.609 6.048 -71.944 
3.808 -0.970 -60.635 
3.780 -0.955 -60.817 
10.608 4.435 -75.219 
10.858 4.364 -75.809 
2.897 -10.252 -68.810 
3.188 -10.259 -68.917 
-11.024 -4.453 -63.034 
-11.015 -4.443 -63.211 
6.184 -1.312 -64.446 
6.233 -1.211 -64.869 
13.785 10.807 -69.534 
13.901 10.942 -69.800 
-12.376 7.765 -65.808 
-12.411 7.955 -65.709 
-8.535 1.530 -68.934 
-8.442 1.829 -68.924 
-6.088 -4.903 -66.508 
-6.125 -4.863 -66.693 
-2.279 7.282 -73.418 
-2.301 7.401 -73.620 
-6.984 10.760 -69.163 
-7.041 10.739 -69.309 
12.067 -7.484 -72.972 
11.924 -7.470 -73.105 
2.002 -2.934 -63.519 
1.845 -2.953 -63.792 
-13.889 -5.002 -69.277 
-13.689 -4.821 -69.366 
-7.690 5.376 -72.148 
-7.478 5.626 -72.269 
-5.739 -2.511 -63.362 
-5.642 -2.363 -63.781 
-0.391 -10.653 -70.589 
-0.280 -10.620 -70.572 
-8.766 -6.296 -64.707 
-8.927 -6.312 -65.012 
-3.368 1.425 -63.413 
-3.397 1.467 -63.507 
11.818 10.495 -70.733 
11.773 10.557 -71.074 
3.334 -7.168 -66.964 
3.281 -7.065 -67.034 
-11.017 2.930 -62.074 
-11.252 2.973 -62.391 
-7.918 12.461 -70.330 
-8.080 12.457 -70.435 
-5.034 -1.400 -63.047 
-4.835 -1.418 -63.321 
-9.423 -11.268 -65.623 
-9.342 -11.408 -65.717 
-5.004 -10.680 -68.467 
-4.793 -10.749 -68.378 
13.715 4.542 -65.880 
13.785 4.735 -65.868 
-11.485 -0.872 -67.344 
-11.289 -0.453 -67.452 
-4.026 8.538 -64.077 
-4.152 8.448 -63.978 
5.245 -3.779 -68.359 
5.394 -3.912 -68.679 
0.986 -7.016 -61.927 
0.949 -6.971 -62.211 
6.102 1.826 -63.894 
6.137 1.841 -63.938 
-9.295 7.892 -71.084 
-9.098 8.016 -71.011 
8.761 8.359 -65.209 
8.770 8.207 -65.191 
-0.841 -5.595 -70.206 
-0.629 -5.396 -70.177 
-2.824 3.517 -63.435 
-2.871 3.328 -63.353 
4.369 -6.587 -69.886 
4.610 -6.693 -70.139 
-5.472 -0.895 -62.832 
-5.347 -0.860 -63.284 
-1.047 3.103 -63.703 
-0.963 2.992 -63.631 
5.558 8.709 -72.810 
5.427 8.441 -72.803 
1.609 5.266 -62.661 
1.393 5.351 -62.773 
-8.009 -0.543 -69.886 
-7.840 -0.274 -70.027 
5.061 9.277 -71.298 
4.978 9.162 -71.321 
8.820 4.763 -67.934 
8.738 4.642 -68.012 
-10.459 2.457 -65.468 
-10.527 2.609 -65.603 
12.167 4.730 -67.921 
12.122 5.008 -67.921 
-3.604 4.003 -69.089 
-3.442 4.262 -69.036 
6.939 -3.125 -64.305 
6.967 -2.946 -64.539 
5.711 9.617 -70.192 
5.680 9.240 -70.189 
-6.783 -1.824 -64.778 
-6.649 -1.821 -65.100 
-3.035 -1.591 -65.378 
-3.060 -1.500 -65.773 
-6.788 9.740 -67.028 
-7.061 9.508 -67.056 
-1.991 -12.299 -64.369 
-1.645 -12.130 -64.004 
8.103 -0.930 -68.250 
8.152 -0.862 -68.588 
-5.341 4.924 -61.166 
-5.256 5.022 -61.122 
6.692 2.936 -67.431 
6.701 3.019 -67.606 
-9.149 11.314 -67.577 
-9.214 11.256 -67.513 
6.119 -5.326 -64.826 
6.038 -5.229 -65.031 
2.218 0.624 -66.501 
2.322 0.421 -66.727 
-4.672 -0.436 -62.647 
-4.714 -0.464 -63.031 
11.569 1.941 -63.893 
11.582 2.082 -64.225 
-11.580 5.857 -61.669 
-11.688 5.999 -61.837 
-6.621 6.501 -60.713 
-6.393 6.527 -60.569 
2.086 -11.888 -70.451 
2.206 -11.954 -70.596 
-3.568 0.472 -61.991 
-3.664 0.428 -62.274 
-7.020 8.290 -71.257 
-6.886 8.216 -71.499 
6.201 -7.977 -66.987 
6.088 -7.842 -67.200 
1.365 12.133 -66.118 
1.194 11.703 -66.182 
1.050 -1.266 -67.447 
0.959 -1.214 -67.648 
-7.926 -4.494 -62.976 
-7.733 -4.523 -63.397 
-10.476 -4.273 -72.514 
-10.388 -4.214 -72.723 
6.580 3.600 -62.883 
6.529 3.707 -63.156 
-3.902 -6.514 -72.485 
-3.660 -6.498 -72.517 
-3.627 0.626 -70.609 
-3.444 0.866 -70.702 
9.409 0.633 -69.411 
9.448 0.723 -69.660 
8.365 -8.568 -68.728 
8.789 -8.365 -68.856 
7.164 -6.281 -73.853 
7.217 -6.275 -73.985 
0.840 5.513 -65.016 
0.957 5.578 -65.082 
-10.928 -8.116 -63.919 
-11.000 -8.179 -63.968 
5.385 6.069 -66.000 
5.058 6.007 -65.991 
9.751 8.267 -66.757 
9.729 8.179 -66.810 
-7.351 12.443 -63.251 
-7.528 12.564 -63.038 
4.819 4.596 -71.726 
4.984 4.349 -71.941 
4.935 10.434 -66.048 
4.945 10.399 -65.927 
9.037 11.354 -71.362 
8.710 11.105 -71.189 
10.677 8.015 -71.896 
10.759 7.862 -72.089 
8.359 7.315 -64.670 
8.412 7.204 -64.547 
10.918 -1.277 -68.433 
10.915 -1.510 -68.509 
14.306 11.454 -67.083 
14.334 11.672 -67.450 
-12.082 2.844 -68.085 
-12.053 3.208 -68.186 
-2.177 7.500 -65.678 
-2.140 7.673 -65.541 
12.938 2.151 -65.558 
13.020 2.257 -65.989 
-7.221 1.559 -61.035 
-7.437 1.476 -61.386 
-3.325 -6.255 -63.212 
-3.346 -6.409 -63.468 
17.243 11.247 -69.110 
17.506 11.045 -69.439 
11.823 0.803 -67.511 
11.743 0.802 -67.524 
-14.854 -8.511 -72.845 
-14.728 -8.426 -73.150 
-3.773 6.309 -70.432 
-3.561 6.354 -70.584 
-14.095 -4.887 -73.393 
-13.784 -4.999 -73.563 
6.692 -8.236 -76.920 
6.871 -8.236 -77.270 
0.850 -10.438 -60.612 
0.633 -10.296 -60.664 
2.595 0.243 -60.209 
2.617 0.257 -60.351 
0.023 6.552 -61.533 
-0.193 6.604 -61.660 
9.046 -3.092 -65.059 
9.048 -2.966 -65.286 
7.258 -7.570 -64.286 
6.979 -7.510 -64.360 
-3.554 -8.810 -65.177 
-3.667 -8.706 -65.074 
6.765 0.782 -71.649 
6.692 0.704 -71.965 
6.991 -1.840 -64.875 
7.125 -1.648 -65.406 
0.790 6.987 -71.225 
0.634 7.043 -71.304 
-12.758 2.241 -69.820 
-12.741 2.617 -69.901 
-5.140 8.440 -67.395 
-5.189 8.404 -67.415 
[...]
POINT_DATA 898 
SCALARS Umean double 1 
LOOKUP_TABLE default
0.09769 
0.09769 
0.11456 
0.11456 
0.08315 
0.08315 
0.11061 
0.11061 
0.12999 
0.12999 
0.15319 
0.15319 
0.10064 
0.10064 
0.13433 
0.13433 
0.09703 
0.09703 
0.20436 
0.20436 
0.21901 
0.21901 
0.14082 
0.14082 
0.10252 
0.10252 
0.18201 
0.18201 
0.18650 
0.18650 
0.28011 
0.28011 
0.10357 
0.10357 
0.10702 
0.10702 
0.11419 
0.11419 
0.11826 
0.11826 
0.07310 
0.07310 
0.16648 
0.16648 
0.12862 
0.12862 
0.09476 
0.09476 
0.22541 
0.22541 
0.12536 
0.12536 
0.03953 
0.03953 
0.21209 
0.21209 
0.08566 
0.08566 
0.13096 
0.13096 
0.10593 
0.10593 
0.13050 
0.13050 
0.16131 
0.16131 
0.20238 
0.20238 
0.14406 
0.14406 
0.21577 
0.21577 
0.09146 
0.09146 
0.12014 
0.12014 
0.12594 
0.12594 
0.22561 
0.22561 
0.14009 
0.14009 
0.16520 
0.16520 
0.16131 
0.16131 
0.10287 
0.10287 
0.09363 
0.09363 
0.12734 
0.12734 
0.14780 
0.14780 
0.13412 
0.13412 
0.18078 
0.18078 
0.13564 
0.13564 
0.19309 
0.19309 
0.16939 
0.16939 
0.04919 
0.04919 
0.15818 
0.15818 
0.08294 
0.08294 
0.13787 
0.13787 
0.08054 
0.08054 
0.14598 
0.14598 
0.11929 
0.11929 
0.10800 
0.10800 
0.08404 
0.08404 
0.27973 
0.27973 
0.11166 
0.11166 
0.09339 
0.09339 
0.12514 
0.12514 
0.05935 
0.05935 
0.13803 
0.13803 
0.18513 
0.18513 
0.25536 
0.25536 
0.08207 
0.08207 
0.07910 
0.07910 
0.09074 
0.09074 
0.11504 
0.11504 
0.20686 
0.20686 
0.15870 
0.15870 
0.22111 
0.22111 
0.10880 
0.10880 
0.10192 
0.10192 
0.04863 
0.04863 
0.07172 
0.07172 
0.17171 
0.17171 
0.14099 
0.14099 
0.04334 
0.04334 
0.18420 
0.18420 
0.10835 
0.10835 
0.10572 
0.10572 
0.10113 
0.10113 
0.13807 
0.13807 
0.21616 
0.21616 
0.12105 
0.12105 
0.13435 
0.13435 
0.08877 
0.08877 
0.10795 
0.10795 
0.18628 
0.18628 
0.04281 
0.04281 
0.20181 
0.20181 
0.04400 
0.04400 
0.13943 
0.13943 
0.18086 
0.18086 
0.17985 
0.17985 
0.12363 
0.12363 
0.24459 
0.24459 
0.27206 
0.27206 
0.18016 
0.18016 
0.19496 
0.19496 
0.07750 
0.07750 
0.12141 
0.12141 
0.09921 
0.09921 
0.20432 
0.20432 
0.29790 
0.29790 
0.09238 
0.09238 
0.32235 
0.32235 
0.15506 
0.15506 
0.08876 
0.08876 
0.21882 
0.21882 
0.16003 
0.16003 
0.10854 
0.10854 
0.15664 
0.15664 
0.09643 
0.09643 
0.11774 
0.11774 
0.07907 
0.07907 
0.09790 
0.09790 
0.15775 
0.15775 
0.14202 
0.14202 
0.17470 
0.17470 
0.22742 
0.22742 
0.05852 
0.05852 
0.17263 
0.17263 
0.05348 
0.05348 
0.17475 
0.17475 
0.06767 
0.06767 
0.19847 
0.19847 
0.09655 
0.09655 
0.16956 
0.16956 
0.09354 
0.09354 
0.11959 
0.11959 
0.10283 
0.10283 
0.23751 
0.23751 
0.09189 
0.09189 
0.18861 
0.18861 
0.14496 
0.14496 
0.02909 
0.02909 
0.12198 
0.12198 
0.07666 
0.07666 
0.14610 
0.14610 
0.10566 
0.10566 
0.18257 
0.18257 
0.23514 
0.23514 
0.07836 
0.07836 
0.14919 
0.14919 
0.12887 
0.12887 
0.17378 
0.17378 
0.07184 
0.07184 
0.08284 
0.08284 
0.10718 
0.10718 
0.14081 
0.14081 
0.15503 
0.15503 
0.14797 
0.14797 
0.18914 
0.18914 
0.17439 
0.17439 
0.20306 
0.20306 
0.17968 
0.17968 
0.26528 
0.26528 
0.17412 
0.17412 
0.06849 
0.06849 
0.09695 
0.09695 
0.05405 
0.05405 
0.12041 
0.12041 
0.16055 
0.16055 
0.19365 
0.19365 
0.18047 
0.18047 
0.12253 
0.12253 
0.13546 
0.13546 
0.09973 
0.09973 
0.15103 
0.15103 
0.14317 
0.14317 
0.13817 
0.13817 
0.23358 
0.23358 
0.11334 
0.11334 
0.23202 
0.23202 
0.11716 
0.11716 
0.14881 
0.14881 
0.12232 
0.12232 
0.15791 
0.15791 
0.13381 
0.13381 
0.24360 
0.24360 
0.07118 
0.07118 
0.07462 
0.07462 
0.05374 
0.05374 
0.16647 
0.16647 
0.05253 
0.05253 
0.15111 
0.15111 
0.18334 
0.18334 
0.06318 
0.06318 
0.22297 
0.22297 
0.12979 
0.12979 
0.08698 
0.08698 
0.12255 
0.12255 
0.21389 
0.21389 
0.18943 
0.18943 
0.11188 
0.11188 
0.22568 
0.22568 
0.21021 
0.21021 
0.14974 
0.14974 
0.23357 
0.23357 
0.04053 
0.04053 
0.17039 
0.17039 
0.13236 
0.13236 
0.18585 
0.18585 
0.19656 
0.19656 
0.13225 
0.13225 
0.07219 
0.07219 
0.12795 
0.12795 
0.12982 
0.12982 
0.14741 
0.14741 
0.09246 
0.09246 
0.16679 
0.16679 
0.29016 
0.29016 
0.09181 
0.09181 
0.19250 
0.19250 
0.03200 
0.03200 
0.17208 
0.17208 
0.05624 
0.05624 
0.08706 
0.08706 
0.19079 
0.19079 
0.23896 
0.23896 
0.14270 
0.14270 
0.08675 
0.08675 
0.03032 
0.03032 
0.13594 
0.13594 
0.18423 
0.18423 
0.19319 
0.19319 
0.13010 
0.13010 
0.03870 
0.03870 
0.28078 
0.28078 
0.14936 
0.14936 
0.17068 
0.17068 
0.19686 
0.19686 
0.28036 
0.28036 
0.03997 
0.03997 
0.10718 
0.10718 
0.13804 
0.13804 
0.12936 
0.12936 
0.17555 
0.17555 
0.27595 
0.27595 
0.03424 
0.03424 
0.11236 
0.11236 
0.07994 
0.07994 
0.16437 
0.16437 
0.11239 
0.11239 
0.06578 
0.06578 
0.08147 
0.08147 
0.15608 
0.15608 
0.30367 
0.30367 
0.20695 
0.20695 
0.13021 
0.13021 
0.12433 
0.12433 
0.10679 
0.10679 
0.08444 
0.08444 
0.13975 
0.13975 
0.08411 
0.08411 
0.12494 
0.12494 
0.16158 
0.16158 
0.04462 
0.04462 
0.20430 
0.20430 
0.02796 
0.02796 
0.20962 
0.20962 
0.15329 
0.15329 
0.07864 
0.07864 
0.11529 
0.11529 
0.13280 
0.13280 
0.09796 
0.09796 
0.19126 
0.19126 
0.07830 
0.07830 
0.08830 
0.08830 
0.15662 
0.15662 
0.12572 
0.12572 
0.10980 
0.10980 
0.15092 
0.15092 
0.20231 
0.20231 
0.14928 
0.14928 
0.11344 
0.11344 
0.21852 
0.21852 
0.16285 
0.16285 
0.09835 
0.09835 
0.09012 
0.09012 
0.12265 
0.12265 
0.10484 
0.10484 
0.19072 
0.19072 
0.18674 
0.18674 
0.08558 
0.08558 
0.17008 
0.17008 
0.07249 
0.07249 
0.16671 
0.16671 
0.21316 
0.21316 
0.19633 
0.19633 
0.11252 
0.11252 
0.12601 
0.12601 
0.05199 
0.05199 
0.23571 
0.23571 
0.03870 
0.03870 
0.06057 
0.06057 
0.08043 
0.08043 
0.04773 
0.04773 
0.12244 
0.12244 
0.19703 
0.19703 
0.08601 
0.08601 
0.14449 
0.14449 
0.10280 
0.10280 
0.08029 
0.08029 
0.06058 
0.06058 
0.26326 
0.26326 
0.20782 
0.20782 
0.13421 
0.13421 
0.10012 
0.10012 
0.13710 
0.13710 
0.09642 
0.09642 
0.16661 
0.16661 
0.13680 
0.13680 
0.11444 
0.11444 
0.12917 
0.12917 
0.08028 
0.08028 
0.15057 
0.15057 
0.14693 
0.14693 
0.26771 
0.26771 
0.07706 
0.07706 
0.06451 
0.06451 
0.15067 
0.15067 
0.19150 
0.19150 
0.12093 
0.12093 
0.21269 
0.21269 
0.20762 
0.20762 
0.10749 
0.10749 
0.10887 
0.10887 
0.14465 
0.14465 
0.05237 
0.05237 
0.21532 
0.21532 
0.15619 
0.15619 
0.18796 
0.18796 
0.17431 
0.17431 
0.04050 
0.04050 
0.14025 
0.14025 
0.09749 
0.09749 
0.11586 
0.11586 
0.15622 
0.15622 
0.19226 
0.19226 
0.06125 
0.06125 
0.13767 
0.13767 
0.13174 
0.13174 
0.18277 
0.18277 
0.20156 
0.20156 
0.20248 
0.20248 
0.07516 
0.07516 
0.30584 
0.30584 
0.22497 
0.22497 
0.21306 
0.21306 
0.13092 
0.13092 
0.23284 
0.23284 
0.16894 
0.16894 
0.08546 
0.08546 
0.28371 
0.28371 
0.07467 
0.07467 
0.09762 
0.09762 
0.28263 
0.28263 
0.21087 
0.21087 
0.05497 
0.05497 
0.20151 
0.20151 
0.16927 
0.16927 
0.21729 
0.21729 
0.10456 
0.10456 
0.20493 
0.20493 
0.25175 
0.25175 
0.11331 
0.11331 
0.10892 
0.10892 
0.15957 
0.15957 
0.21562 
0.21562 
0.09281 
0.09281 
0.17738 
0.17738 
0.22203 
0.22203 
0.16913 
0.16913 
0.04779 
0.04779 
0.12494 
0.12494 
0.16865 
0.16865 
0.14939 
0.14939 
0.11283 
0.11283 
0.24794 
0.24794 
0.16467 
0.16467 
0.05977 
0.05977 
0.12412 
0.12412 
0.08860 
0.08860 
0.05773 
0.05773 
0.14215 
0.14215 
0.07706 
0.07706 
0.20685 
0.20685 
0.07471 
0.07471 
0.31712 
0.31712 
0.24873 
0.24873 
0.14273 
0.14273 
0.26545 
0.26545 
0.13054 
0.13054 
0.12722 
0.12722 
0.17332 
0.17332 
0.30647 
0.30647 
0.10180 
0.10180 
0.29181 
0.29181 
0.17123 
0.17123 
0.11577 
0.11577 
0.12826 
0.12826 
0.10980 
0.10980 
0.24322 
0.24322 
0.14895 
0.14895 
0.15286 
0.15286 
0.17304 
0.17304 
0.20312 
0.20312 
0.09245 
0.09245 
0.27555 
0.27555 
0.07339 
0.07339 
0.07715 
0.07715 
0.13585 
0.13585 
0.17734 
0.17734 
0.21461 
0.21461 
0.26664 
0.26664 
0.09652 
0.09652 
0.12166 
0.12166 
0.20334 
0.20334 
0.10277 
0.10277 
0.15035 
0.15035 
0.14372 
0.14372 
0.10329 
0.10329 
0.23648 
0.23648 
0.12255 
0.12255 
0.14093 
0.14093 
0.06627 
0.06627 
0.08756 
0.08756 
0.28330 
0.28330 
0.07983 
0.07983 
0.05883 
0.05883 
0.17276 
0.17276 
0.07863 
0.07863 
0.19257 
0.19257 
0.25091 
0.25091 
0.05551 
0.05551 
0.08988 
0.08988 
0.18666 
0.18666 
0.14594 
0.14594 
0.06682 
0.06682 
0.10536 
0.10536 
0.11031 
0.11031 
0.12176 
0.12176 
SCALARS Umean_X double 1 
LOOKUP_TABLE default
-0.05050 
-0.05050 
-0.01550 
-0.01550 
0.04900 
0.04900 
0.02550 
0.02550 
0.09400 
0.09400 
0.05600 
0.05600 
0.01150 
0.01150 
0.06100 
0.06100 
0.02450 
0.02450 
0.10450 
0.10450 
0.11350 
0.11350 
0.06250 
0.06250 
0.02300 
0.02300 
-0.04700 
-0.04700 
-0.00050 
-0.00050 
-0.21000 
-0.21000 
0.02050 
0.02050 
0.08800 
0.08800 
0.02650 
0.02650 
0.03550 
0.03550 
-0.02900 
-0.02900 
0.00550 
0.00550 
-0.10550 
-0.10550 
0.08650 
0.08650 
0.20300 
0.20300 
-0.11050 
-0.11050 
0.03350 
0.03350 
0.12000 
0.12000 
0.06750 
0.06750 
0.00300 
0.00300 
-0.00400 
-0.00400 
0.02450 
0.02450 
0.02850 
0.02850 
0.12350 
0.12350 
-0.02700 
-0.02700 
-0.06650 
-0.06650 
0.07700 
0.07700 
0.07250 
0.07250 
0.00400 
0.00400 
0.01400 
0.01400 
0.04900 
0.04900 
-0.15400 
-0.15400 
0.01900 
0.01900 
-0.07000 
-0.07000 
0.02750 
0.02750 
0.09700 
0.09700 
-0.06850 
-0.06850 
-0.01100 
-0.01100 
0.10450 
0.10450 
0.04250 
0.04250 
-0.06300 
-0.06300 
-0.06650 
-0.06650 
-0.04900 
-0.04900 
0.11450 
0.11450 
0.03050 
0.03050 
-0.12650 
-0.12650 
-0.03450 
-0.03450 
-0.01900 
-0.01900 
0.01700 
0.01700 
0.06000 
0.06000 
0.00650 
0.00650 
0.00500 
0.00500 
0.10050 
0.10050 
-0.02100 
-0.02100 
0.02600 
0.02600 
-0.03050 
-0.03050 
0.08150 
0.08150 
0.10800 
0.10800 
-0.03600 
-0.03600 
0.07500 
0.07500 
-0.00950 
-0.00950 
-0.01500 
-0.01500 
0.10500 
0.10500 
0.15000 
0.15000 
0.15750 
0.15750 
-0.11450 
-0.11450 
-0.02800 
-0.02800 
0.03700 
0.03700 
0.03750 
0.03750 
0.00900 
0.00900 
0.07100 
0.07100 
0.00500 
0.00500 
0.04050 
0.04050 
-0.13600 
-0.13600 
-0.05150 
-0.05150 
0.02050 
0.02050 
0.04850 
0.04850 
-0.05250 
-0.05250 
0.03450 
0.03450 
-0.07300 
-0.07300 
0.08700 
0.08700 
0.07350 
0.07350 
0.01100 
0.01100 
-0.02850 
-0.02850 
-0.03850 
-0.03850 
0.02050 
0.02050 
0.02850 
0.02850 
0.12850 
0.12850 
0.05500 
0.05500 
-0.06850 
-0.06850 
0.00900 
0.00900 
-0.09850 
-0.09850 
0.02050 
0.02050 
-0.10250 
-0.10250 
-0.17300 
-0.17300 
0.02600 
0.02600 
0.08800 
0.08800 
0.01900 
0.01900 
-0.02900 
-0.02900 
0.00300 
0.00300 
-0.01400 
-0.01400 
0.12500 
0.12500 
0.14550 
0.14550 
0.00450 
0.00450 
0.02450 
0.02450 
0.05800 
0.05800 
-0.01750 
-0.01750 
0.04650 
0.04650 
-0.01850 
-0.01850 
-0.01100 
-0.01100 
-0.02850 
-0.02850 
-0.07150 
-0.07150 
-0.07850 
-0.07850 
0.10000 
0.10000 
0.10600 
0.10600 
0.04850 
0.04850 
0.05550 
0.05550 
-0.08050 
-0.08050 
-0.01450 
-0.01450 
-0.02250 
-0.02250 
-0.02650 
-0.02650 
-0.11750 
-0.11750 
-0.08100 
-0.08100 
0.09950 
0.09950 
0.04050 
0.04050 
0.10550 
0.10550 
0.03500 
0.03500 
0.09800 
0.09800 
-0.06300 
-0.06300 
0.07450 
0.07450 
-0.01850 
-0.01850 
0.01750 
0.01750 
0.09850 
0.09850 
0.00450 
0.00450 
0.10600 
0.10600 
-0.02350 
-0.02350 
0.12050 
0.12050 
0.06250 
0.06250 
0.04200 
0.04200 
-0.06550 
-0.06550 
-0.10800 
-0.10800 
0.08450 
0.08450 
-0.04150 
-0.04150 
-0.04100 
-0.04100 
-0.03400 
-0.03400 
-0.02250 
-0.02250 
0.08100 
0.08100 
0.01400 
0.01400 
-0.01550 
-0.01550 
0.06700 
0.06700 
-0.01250 
-0.01250 
-0.13650 
-0.13650 
0.17300 
0.17300 
0.02450 
0.02450 
0.04250 
0.04250 
0.00450 
0.00450 
-0.03250 
-0.03250 
-0.04050 
-0.04050 
0.05200 
0.05200 
-0.02100 
-0.02100 
0.00650 
0.00650 
-0.05400 
-0.05400 
0.11400 
0.11400 
0.06000 
0.06000 
-0.04800 
-0.04800 
0.06700 
0.06700 
-0.05650 
-0.05650 
-0.08550 
-0.08550 
-0.04550 
-0.04550 
0.09650 
0.09650 
0.04400 
0.04400 
-0.02550 
-0.02550 
0.12100 
0.12100 
0.09150 
0.09150 
0.01950 
0.01950 
0.21200 
0.21200 
0.02650 
0.02650 
0.05850 
0.05850 
-0.03600 
-0.03600 
-0.16350 
-0.16350 
-0.01100 
-0.01100 
-0.08850 
-0.08850 
0.08250 
0.08250 
0.00500 
0.00500 
-0.16350 
-0.16350 
0.04100 
0.04100 
0.02650 
0.02650 
-0.00150 
-0.00150 
0.01400 
0.01400 
0.01450 
0.01450 
0.01850 
0.01850 
0.04100 
0.04100 
-0.10800 
-0.10800 
-0.01050 
-0.01050 
0.13150 
0.13150 
-0.04000 
-0.04000 
0.06300 
0.06300 
0.10600 
0.10600 
0.15550 
0.15550 
0.08950 
0.08950 
-0.10850 
-0.10850 
0.01100 
0.01100 
-0.10800 
-0.10800 
0.00100 
0.00100 
-0.13950 
-0.13950 
-0.05650 
-0.05650 
-0.03650 
-0.03650 
0.06700 
0.06700 
-0.07800 
-0.07800 
0.00850 
0.00850 
-0.02450 
-0.02450 
0.08000 
0.08000 
0.03900 
0.03900 
0.06900 
0.06900 
0.05100 
0.05100 
0.08500 
0.08500 
0.13050 
0.13050 
-0.02300 
-0.02300 
0.01450 
0.01450 
0.07350 
0.07350 
0.01100 
0.01100 
-0.02200 
-0.02200 
-0.01400 
-0.01400 
0.03700 
0.03700 
-0.00350 
-0.00350 
0.06600 
0.06600 
0.07550 
0.07550 
0.08450 
0.08450 
0.12150 
0.12150 
-0.01000 
-0.01000 
0.06450 
0.06450 
0.01000 
0.01000 
0.08450 
0.08450 
0.05250 
0.05250 
-0.01550 
-0.01550 
-0.02200 
-0.02200 
-0.08600 
-0.08600 
0.00900 
0.00900 
-0.04400 
-0.04400 
-0.05050 
-0.05050 
-0.01850 
-0.01850 
0.02400 
0.02400 
0.04000 
0.04000 
0.10200 
0.10200 
0.07650 
0.07650 
0.06850 
0.06850 
0.10850 
0.10850 
-0.00150 
-0.00150 
-0.03650 
-0.03650 
0.10950 
0.10950 
0.03800 
0.03800 
0.01500 
0.01500 
0.07550 
0.07550 
-0.01100 
-0.01100 
0.00100 
0.00100 
-0.00600 
-0.00600 
-0.16750 
-0.16750 
0.05000 
0.05000 
0.02050 
0.02050 
0.08950 
0.08950 
0.07600 
0.07600 
0.01750 
0.01750 
-0.01000 
-0.01000 
-0.00500 
-0.00500 
-0.03300 
-0.03300 
-0.07200 
-0.07200 
0.06050 
0.06050 
0.00700 
0.00700 
-0.07550 
-0.07550 
-0.05500 
-0.05500 
-0.00000 
-0.00000 
0.10500 
0.10500 
-0.03100 
-0.03100 
-0.13900 
-0.13900 
0.05250 
0.05250 
0.07250 
0.07250 
-0.01500 
-0.01500 
0.01050 
0.01050 
0.02950 
0.02950 
-0.02650 
-0.02650 
-0.01850 
-0.01850 
0.00100 
0.00100 
-0.02150 
-0.02150 
0.06150 
0.06150 
0.00550 
0.00550 
0.03350 
0.03350 
-0.08250 
-0.08250 
-0.09950 
-0.09950 
0.02550 
0.02550 
0.00700 
0.00700 
-0.02900 
-0.02900 
-0.05750 
-0.05750 
0.00600 
0.00600 
0.00050 
0.00050 
-0.11700 
-0.11700 
0.00550 
0.00550 
-0.05400 
-0.05400 
-0.13000 
-0.13000 
-0.09000 
-0.09000 
-0.03650 
-0.03650 
0.05300 
0.05300 
-0.16000 
-0.16000 
-0.07200 
-0.07200 
-0.01700 
-0.01700 
0.04900 
0.04900 
0.00100 
0.00100 
0.08850 
0.08850 
0.05000 
0.05000 
0.06050 
0.06050 
-0.02450 
-0.02450 
0.03900 
0.03900 
0.06650 
0.06650 
-0.05000 
-0.05000 
0.12950 
0.12950 
0.15900 
0.15900 
-0.01300 
-0.01300 
-0.04600 
-0.04600 
-0.03600 
-0.03600 
-0.05750 
-0.05750 
0.01800 
0.01800 
0.08900 
0.08900 
-0.18200 
-0.18200 
0.06000 
0.06000 
0.06050 
0.06050 
-0.01200 
-0.01200 
0.03150 
0.03150 
-0.00700 
-0.00700 
0.15050 
0.15050 
0.03250 
0.03250 
0.04550 
0.04550 
0.00850 
0.00850 
-0.02650 
-0.02650 
0.00350 
0.00350 
0.02200 
0.02200 
0.01700 
0.01700 
0.12350 
0.12350 
0.00300 
0.00300 
0.04800 
0.04800 
0.08950 
0.08950 
-0.02050 
-0.02050 
-0.01700 
-0.01700 
0.07400 
0.07400 
0.05750 
0.05750 
0.22900 
0.22900 
-0.17700 
-0.17700 
-0.00850 
-0.00850 
-0.00100 
-0.00100 
-0.12100 
-0.12100 
0.05500 
0.05500 
-0.05000 
-0.05000 
0.19450 
0.19450 
0.03800 
0.03800 
0.07550 
0.07550 
-0.13900 
-0.13900 
0.08150 
0.08150 
0.04950 
0.04950 
0.12750 
0.12750 
-0.07500 
-0.07500 
0.10100 
0.10100 
0.08200 
0.08200 
0.08150 
0.08150 
-0.04400 
-0.04400 
0.10650 
0.10650 
0.02650 
0.02650 
0.08700 
0.08700 
0.19550 
0.19550 
0.04750 
0.04750 
-0.00850 
-0.00850 
0.04150 
0.04150 
0.15700 
0.15700 
-0.03050 
-0.03050 
0.00050 
0.00050 
-0.00400 
-0.00400 
-0.06850 
-0.06850 
0.01000 
0.01000 
0.11100 
0.11100 
-0.12250 
-0.12250 
-0.03350 
-0.03350 
0.05800 
0.05800 
0.01100 
0.01100 
0.04200 
0.04200 
0.08150 
0.08150 
0.06100 
0.06100 
0.14000 
0.14000 
0.01300 
0.01300 
0.11250 
0.11250 
0.09350 
0.09350 
-0.03600 
-0.03600 
0.12850 
0.12850 
0.08550 
0.08550 
0.03600 
0.03600 
0.05550 
0.05550 
0.13200 
0.13200 
-0.08050 
-0.08050 
-0.23700 
-0.23700 
-0.05050 
-0.05050 
0.06350 
0.06350 
0.00050 
0.00050 
0.08950 
0.08950 
0.10400 
0.10400 
0.13550 
0.13550 
0.00300 
0.00300 
0.06600 
0.06600 
0.05650 
0.05650 
-0.05250 
-0.05250 
0.06850 
0.06850 
-0.04550 
-0.04550 
0.06900 
0.06900 
0.00200 
0.00200 
0.06200 
0.06200 
-0.14700 
-0.14700 
0.15900 
0.15900 
-0.02600 
-0.02600 
0.04450 
0.04450 
0.02100 
0.02100 
0.09600 
0.09600 
-0.04900 
-0.04900 
0.01200 
0.01200 
0.03850 
0.03850 
-0.01050 
-0.01050 
0.11900 
0.11900 
-0.05550 
-0.05550 
-0.00700 
-0.00700 
-0.07200 
-0.07200 
0.00900 
0.00900 
-0.07200 
-0.07200 
0.02300 
0.02300 
-0.06850 
-0.06850 
0.01950 
0.01950 
-0.02900 
-0.02900 
0.00300 
0.00300 
0.04150 
0.04150 
0.05550 
0.05550 
-0.07800 
-0.07800 
0.10300 
0.10300 
-0.05450 
-0.05450 
-0.05950 
-0.05950 
-0.01750 
-0.01750 
-0.00500 
-0.00500 
SCALARS Umean_Y double 1 
LOOKUP_TABLE default
-0.06950 
-0.06950 
-0.02800 
-0.02800 
0.00950 
0.00950 
-0.08000 
-0.08000 
0.08350 
0.08350 
0.00500 
0.00500 
-0.01400 
-0.01400 
0.09950 
0.09950 
-0.07050 
-0.07050 
0.16850 
0.16850 
0.17250 
0.17250 
-0.11650 
-0.11650 
0.08650 
0.08650 
0.16750 
0.16750 
0.00100 
0.00100 
-0.18100 
-0.18100 
0.08000 
0.08000 
-0.05300 
-0.05300 
0.05500 
0.05500 
0.07800 
0.07800 
0.00900 
0.00900 
0.06300 
0.06300 
-0.03250 
-0.03250 
-0.02100 
-0.02100 
0.08900 
0.08900 
-0.00500 
-0.00500 
0.02050 
0.02050 
0.17450 
0.17450 
0.04900 
0.04900 
0.08450 
0.08450 
0.09650 
0.09650 
0.08550 
0.08550 
-0.06900 
-0.06900 
-0.03000 
-0.03000 
0.05100 
0.05100 
0.11650 
0.11650 
0.04800 
0.04800 
0.01850 
0.01850 
0.03800 
0.03800 
0.09950 
0.09950 
0.05200 
0.05200 
-0.05800 
-0.05800 
0.06700 
0.06700 
0.01150 
0.01150 
-0.00100 
-0.00100 
0.00050 
0.00050 
0.11100 
0.11100 
0.04600 
0.04600 
-0.03200 
-0.03200 
0.08300 
0.08300 
0.02350 
0.02350 
0.04550 
0.04550 
-0.00400 
-0.00400 
0.09050 
0.09050 
0.07500 
0.07500 
0.04800 
0.04800 
-0.01600 
-0.01600 
-0.06850 
-0.06850 
0.05200 
0.05200 
0.06400 
0.06400 
0.07250 
0.07250 
0.01950 
0.01950 
0.03100 
0.03100 
0.00050 
0.00050 
0.07900 
0.07900 
0.03650 
0.03650 
0.11100 
0.11100 
0.12700 
0.12700 
0.19450 
0.19450 
-0.03000 
-0.03000 
-0.04550 
-0.04550 
0.08500 
0.08500 
0.01900 
0.01900 
-0.05100 
-0.05100 
0.01800 
0.01800 
0.02500 
0.02500 
-0.01850 
-0.01850 
0.06250 
0.06250 
0.02650 
0.02650 
0.02250 
0.02250 
-0.06650 
-0.06650 
0.07700 
0.07700 
0.01400 
0.01400 
-0.10850 
-0.10850 
-0.04600 
-0.04600 
-0.09650 
-0.09650 
-0.08500 
-0.08500 
-0.12400 
-0.12400 
0.08200 
0.08200 
0.08350 
0.08350 
-0.01950 
-0.01950 
0.04150 
0.04150 
0.08100 
0.08100 
0.00550 
0.00550 
0.01050 
0.01050 
0.02250 
0.02250 
0.03200 
0.03200 
0.01500 
0.01500 
0.11250 
0.11250 
0.16050 
0.16050 
0.02100 
0.02100 
-0.04650 
-0.04650 
0.27100 
0.27100 
0.01850 
0.01850 
0.03450 
0.03450 
-0.00100 
-0.00100 
0.07900 
0.07900 
0.07250 
0.07250 
-0.01000 
-0.01000 
0.20300 
0.20300 
0.00750 
0.00750 
-0.03550 
-0.03550 
-0.00350 
-0.00350 
0.00500 
0.00500 
0.05050 
0.05050 
0.06750 
0.06750 
0.09500 
0.09500 
0.14950 
0.14950 
0.02000 
0.02000 
0.05950 
0.05950 
-0.01050 
-0.01050 
0.00700 
0.00700 
-0.00950 
-0.00950 
0.09050 
0.09050 
0.12500 
0.12500 
0.07400 
0.07400 
0.01650 
0.01650 
-0.00800 
-0.00800 
0.02100 
0.02100 
0.03100 
0.03100 
0.05150 
0.05150 
0.02150 
0.02150 
-0.00200 
-0.00200 
-0.00900 
-0.00900 
-0.07000 
-0.07000 
-0.03450 
-0.03450 
0.09650 
0.09650 
0.20950 
0.20950 
-0.04500 
-0.04500 
-0.06650 
-0.06650 
0.02250 
0.02250 
0.00750 
0.00750 
0.06200 
0.06200 
-0.07600 
-0.07600 
0.09950 
0.09950 
-0.09450 
-0.09450 
-0.05300 
-0.05300 
0.01750 
0.01750 
-0.05550 
-0.05550 
-0.13400 
-0.13400 
0.04250 
0.04250 
0.13450 
0.13450 
-0.05750 
-0.05750 
-0.06050 
-0.06050 
0.07600 
0.07600 
0.13900 
0.13900 
0.12950 
0.12950 
0.08950 
0.08950 
-0.18850 
-0.18850 
0.00150 
0.00150 
0.04550 
0.04550 
-0.11600 
-0.11600 
0.08450 
0.08450 
0.03400 
0.03400 
0.04900 
0.04900 
0.04150 
0.04150 
-0.02900 
-0.02900 
0.04850 
0.04850 
-0.10150 
-0.10150 
-0.01400 
-0.01400 
0.07050 
0.07050 
0.07100 
0.07100 
0.01300 
0.01300 
-0.03300 
-0.03300 
-0.02200 
-0.02200 
-0.03700 
-0.03700 
0.06750 
0.06750 
-0.21500 
-0.21500 