# vtk DataFile Version 2.1 
Trajects from timestep 158 with color option 
ASCII 
 
DATASET POLYDATA POINTS 934 float 
0.599 5.298 -71.147 
0.704 5.401 -71.522 
4.388 1.104 -71.814 
4.579 1.318 -72.075 
6.308 7.056 -71.631 
6.437 7.198 -71.789 
9.459 -1.963 -70.050 
9.556 -1.789 -70.716 
-6.818 8.628 -72.353 
-6.823 8.899 -72.643 
-2.671 2.804 -68.710 
-2.599 3.049 -68.960 
4.153 8.724 -69.915 
4.152 8.713 -69.932 
0.475 -0.779 -70.690 
0.665 -0.463 -70.845 
13.828 5.011 -71.360 
13.851 5.295 -71.541 
-1.130 -2.549 -71.555 
-1.074 -2.213 -71.808 
3.548 10.994 -71.894 
3.454 10.847 -71.884 
4.093 -11.927 -73.261 
4.289 -11.757 -73.252 
-0.361 1.767 -67.039 
-0.311 2.004 -67.081 
-2.785 -0.611 -71.258 
-2.763 -0.260 -71.527 
1.200 6.377 -71.607 
1.182 6.432 -71.872 
5.054 3.511 -68.370 
5.215 3.733 -68.854 
-1.115 -4.144 -70.414 
-1.003 -3.945 -70.772 
-2.245 -3.208 -71.303 
-2.245 -2.916 -71.317 
1.905 4.059 -68.935 
2.021 4.095 -69.121 
-0.996 7.706 -69.072 
-1.150 7.800 -69.258 
-9.214 5.601 -70.126 
-9.135 5.832 -70.403 
-4.398 -12.044 -70.030 
-4.177 -11.934 -70.150 
-4.648 7.566 -67.863 
-4.759 7.687 -67.937 
6.163 12.574 -69.291 
6.131 12.380 -69.206 
2.353 12.073 -71.623 
2.096 11.934 -71.644 
1.476 6.956 -72.668 
1.526 7.215 -72.984 
8.357 -0.536 -72.167 
8.554 -0.328 -72.672 
5.175 2.623 -66.748 
5.128 2.792 -67.126 
4.379 6.267 -72.686 
4.454 6.373 -72.949 
0.698 5.702 -66.013 
0.784 5.819 -66.220 
-7.836 0.623 -69.283 
-7.734 0.900 -69.507 
-0.776 10.531 -71.983 
-0.875 10.604 -71.964 
9.386 3.809 -72.397 
9.637 3.869 -72.714 
5.546 3.463 -65.158 
5.533 3.695 -65.511 
2.143 7.674 -67.263 
2.114 7.678 -67.414 
3.490 7.883 -73.625 
3.632 7.942 -73.684 
-0.606 -7.437 -70.521 
-0.520 -7.299 -70.698 
5.284 -0.873 -67.353 
5.388 -0.879 -67.517 
6.051 -0.114 -69.004 
6.197 -0.054 -69.362 
-4.113 -3.951 -69.164 
-3.955 -3.738 -69.517 
-2.444 1.214 -67.138 
-2.347 1.405 -67.387 
6.567 -6.851 -72.150 
6.704 -6.737 -72.501 
-1.220 8.354 -67.974 
-1.332 8.453 -68.031 
-4.490 5.989 -60.065 
-4.276 6.181 -59.861 
1.432 3.122 -65.782 
1.630 3.238 -65.883 
7.914 -1.444 -70.400 
8.265 -1.289 -71.010 
-1.545 -8.849 -73.462 
-1.410 -8.778 -73.637 
-2.329 -4.333 -71.391 
-2.357 -4.074 -71.469 
13.556 3.738 -68.156 
13.603 3.913 -68.300 
1.956 -6.541 -70.783 
2.193 -6.402 -70.941 
3.357 -7.103 -74.962 
3.533 -7.036 -75.124 
4.937 -2.647 -67.360 
5.090 -2.579 -67.625 
-7.727 2.066 -73.604 
-7.484 2.303 -73.807 
-10.057 6.422 -76.644 
-9.928 6.512 -76.789 
-7.591 -4.535 -66.075 
-7.265 -4.343 -66.198 
-10.187 4.075 -68.440 
-9.952 4.161 -68.474 
9.935 9.812 -68.410 
10.047 9.748 -68.376 
-7.405 -1.406 -69.603 
-7.317 -1.207 -69.814 
-8.221 -5.766 -73.074 
-8.151 -5.703 -73.268 
-6.999 -4.199 -73.876 
-7.127 -4.099 -73.967 
-13.703 9.004 -69.588 
-13.648 9.268 -69.771 
7.989 12.168 -70.392 
8.009 12.083 -70.256 
-3.551 -8.705 -68.484 
-3.612 -8.700 -68.570 
4.683 -10.143 -70.365 
4.843 -10.051 -70.385 
16.595 3.481 -68.820 
16.697 3.723 -68.924 
1.398 5.947 -66.043 
1.434 6.052 -66.267 
1.541 5.173 -66.954 
1.606 5.229 -67.207 
3.393 -4.434 -59.538 
3.518 -4.165 -59.854 
7.166 1.357 -65.583 
7.134 1.511 -65.838 
-14.009 -3.505 -73.986 
-14.043 -3.125 -74.140 
3.600 5.532 -66.948 
3.652 5.530 -67.219 
11.495 1.557 -69.349 
11.438 1.689 -69.517 
-5.470 -2.792 -70.262 
-5.427 -2.579 -70.695 
3.544 -10.434 -63.380 
3.468 -10.321 -63.165 
-8.841 10.331 -67.602 
-8.875 10.442 -67.797 
14.656 2.359 -71.477 
14.723 2.647 -71.574 
9.878 0.730 -65.595 
10.037 1.040 -65.831 
-13.768 9.938 -70.270 
-13.613 10.279 -70.613 
-8.523 -3.720 -74.040 
-8.491 -3.626 -74.217 
15.415 -4.269 -69.318 
15.567 -4.253 -69.574 
4.690 -0.855 -66.988 
4.826 -0.806 -67.105 
-9.194 10.703 -62.143 
-9.156 10.946 -62.103 
-8.755 8.582 -65.892 
-8.822 8.648 -66.008 
6.351 8.572 -62.841 
6.468 8.658 -62.782 
1.715 -5.234 -63.518 
1.733 -5.289 -63.953 
-9.008 8.706 -72.664 
-9.064 8.990 -72.943 
-1.876 12.689 -63.340 
-2.017 12.765 -63.163 
-8.645 10.610 -66.049 
-8.673 10.756 -66.137 
-1.288 3.926 -67.939 
-1.154 4.009 -68.279 
3.869 8.246 -66.409 
3.923 8.276 -66.583 
6.933 2.500 -67.095 
6.915 2.603 -67.523 
3.300 -9.589 -63.043 
3.254 -9.524 -63.121 
-11.584 12.279 -66.769 
-11.466 12.450 -66.766 
-0.278 -6.184 -72.157 
-0.157 -6.041 -72.421 
-13.875 5.909 -66.509 
-13.841 6.294 -66.202 
2.423 1.310 -76.836 
2.626 1.523 -77.000 
1.168 5.256 -62.613 
1.128 5.443 -62.974 
5.399 -2.017 -67.533 
5.492 -2.020 -67.833 
8.290 10.222 -73.067 
8.389 10.181 -73.321 
13.846 -12.511 -70.056 
13.999 -12.571 -70.217 
16.456 4.464 -70.074 
16.618 4.684 -70.191 
-3.278 -8.404 -70.818 
-2.957 -8.327 -71.262 
0.916 0.707 -65.215 
1.074 0.646 -65.465 
11.543 10.428 -74.623 
11.770 10.562 -74.994 
13.984 5.630 -66.853 
14.067 5.815 -66.922 
-10.507 9.004 -66.959 
-10.544 9.030 -67.069 
14.574 8.879 -71.165 
14.768 8.989 -71.558 
-14.529 11.594 -71.556 
-14.450 11.979 -71.863 
-8.260 -11.340 -69.401 
-8.028 -11.156 -69.254 
14.757 5.956 -67.544 
14.866 6.148 -67.656 
0.831 -6.520 -64.738 
0.837 -6.460 -65.217 
-5.551 -7.927 -73.967 
-5.568 -7.889 -74.201 
15.337 -6.717 -74.137 
15.279 -6.740 -74.453 
-2.161 -12.226 -69.277 
-2.028 -12.121 -69.333 
3.324 -7.530 -65.655 
3.270 -7.433 -65.756 
-4.176 -5.797 -68.667 
-4.046 -5.524 -68.891 
-5.043 4.605 -74.332 
-4.911 4.821 -74.625 
12.561 2.631 -67.632 
12.563 2.712 -67.687 
12.133 11.734 -67.277 
12.293 11.800 -67.184 
-7.925 8.821 -70.097 
-8.008 8.933 -70.274 
-3.263 -10.996 -75.623 
-3.119 -10.852 -75.694 
8.667 2.620 -68.059 
8.731 2.591 -68.400 
12.790 -4.920 -66.432 
12.918 -4.718 -66.931 
1.227 1.445 -62.803 
1.230 1.316 -62.997 
4.340 10.997 -67.163 
4.293 11.090 -67.092 
-0.383 1.719 -76.606 
-0.248 1.803 -77.016 
12.437 5.804 -63.842 
12.488 5.901 -63.937 
2.026 3.065 -63.467 
2.123 3.154 -63.803 
-0.190 8.720 -72.819 
-0.139 8.816 -72.813 
-0.451 -2.602 -63.341 
-0.152 -2.377 -63.847 
-6.222 5.882 -70.728 
-6.107 6.208 -70.984 
2.302 -0.123 -68.195 
2.581 0.207 -68.356 
7.563 -6.994 -72.568 
7.641 -6.917 -72.983 
-7.218 2.857 -74.138 
-6.953 3.000 -74.233 
3.282 6.570 -66.263 
3.370 6.624 -66.447 
-8.660 9.923 -72.464 
-8.663 10.180 -72.675 
13.834 2.189 -68.367 
13.782 2.401 -68.486 
-13.782 0.211 -77.197 
-13.711 0.519 -77.276 
-1.031 6.543 -67.683 
-0.851 6.717 -67.921 
-2.525 -0.336 -65.775 
-2.206 -0.141 -66.100 
2.178 10.449 -67.157 
2.030 10.385 -67.044 
1.188 10.554 -61.771 
1.312 10.803 -61.939 
-7.376 5.462 -75.565 
-7.252 5.575 -75.700 
8.329 -0.094 -64.136 
8.593 -0.013 -64.496 
-1.414 1.918 -75.594 
-1.287 2.100 -76.036 
-5.498 -3.469 -67.063 
-5.261 -3.373 -67.519 
13.212 -2.244 -70.296 
13.278 -2.069 -70.478 
-4.490 12.380 -69.862 
-4.697 12.473 -69.854 
8.567 -6.384 -65.603 
8.804 -6.294 -66.040 
2.517 3.059 -62.890 
2.430 3.119 -63.231 
12.123 5.058 -74.345 
12.245 5.242 -74.682 
-7.367 -4.843 -71.625 
-7.209 -4.768 -71.920 
1.192 9.542 -73.179 
1.255 9.674 -73.275 
-4.969 12.194 -63.128 
-5.042 12.372 -62.971 
11.285 -0.653 -67.099 
11.429 -0.558 -67.543 
8.133 0.298 -63.792 
8.307 0.483 -64.275 
-0.083 11.188 -71.556 
-0.241 11.282 -71.556 
11.672 11.640 -69.193 
11.901 11.581 -69.362 
-14.599 -1.183 -73.864 
-14.556 -0.909 -74.157 
1.326 -7.974 -70.456 
1.454 -7.926 -70.641 
12.241 -11.502 -68.679 
12.319 -11.629 -68.827 
-4.924 6.748 -68.408 
-4.931 6.934 -68.662 
-0.918 5.616 -70.541 
-0.756 5.777 -70.854 
4.890 -4.782 -72.640 
5.105 -4.724 -72.806 
13.107 5.609 -67.861 
13.172 5.773 -67.910 
1.701 -3.579 -64.085 
1.854 -3.564 -64.624 
-12.667 7.549 -66.132 
-12.840 7.765 -66.335 
-5.305 12.130 -69.224 
-5.434 12.259 -69.203 
4.859 1.416 -75.354 
5.027 1.586 -75.680 
-6.222 -4.065 -70.172 
-6.008 -3.793 -70.425 
-10.592 3.125 -62.537 
-10.436 3.321 -62.594 
4.510 7.367 -62.215 
4.644 7.444 -62.249 
-3.783 -0.131 -68.497 
-3.572 0.224 -68.921 
3.017 0.544 -64.053 
3.201 0.588 -64.106 
-11.198 -1.581 -75.679 
-11.168 -1.416 -75.826 
-3.315 -11.651 -69.654 
-3.185 -11.572 -69.715 
-10.290 5.045 -62.244 
-10.064 5.379 -62.149 
-4.030 -6.938 -67.835 
-3.946 -6.857 -68.241 
15.076 5.672 -67.912 
15.149 5.876 -68.046 
-9.772 3.473 -65.739 
-9.386 3.579 -65.868 
-0.442 8.994 -69.985 
-0.479 9.156 -70.050 
-7.320 0.425 -65.443 
-7.010 0.597 -65.536 
2.721 -5.724 -66.398 
2.938 -5.809 -66.973 
9.458 7.302 -63.784 
9.602 7.335 -63.638 
-2.923 3.393 -71.613 
-2.805 3.682 -71.955 
-4.858 -7.786 -62.945 
-4.637 -7.763 -63.298 
-6.028 -8.166 -67.648 
-5.867 -8.030 -67.814 
14.797 3.566 -71.886 
14.794 3.815 -72.010 
8.893 -12.128 -71.513 
9.038 -12.074 -71.584 
8.155 8.499 -69.482 
8.250 8.445 -69.622 
-14.211 -4.413 -77.595 
-14.287 -4.221 -77.699 
-5.441 9.064 -64.090 
-5.454 9.223 -64.130 
11.200 -7.248 -70.295 
11.348 -7.228 -70.390 
2.267 5.948 -74.512 
2.300 6.152 -74.802 
9.370 2.768 -70.363 
9.554 2.881 -70.678 
9.713 -1.870 -72.093 
9.929 -1.741 -72.623 
3.870 -8.115 -62.226 
3.815 -7.958 -62.394 
2.402 -8.198 -60.836 
2.286 -8.017 -61.254 
9.775 8.718 -74.937 
10.012 8.828 -75.228 
4.707 -4.311 -66.946 
4.898 -4.251 -67.509 
-14.007 1.115 -69.205 
-13.749 1.239 -69.374 
-8.748 -1.795 -74.370 
-8.728 -1.594 -74.452 
-9.797 7.559 -63.490 
-9.717 7.700 -63.583 
6.755 5.268 -62.246 
6.799 5.220 -62.411 
16.418 -0.943 -67.637 
16.274 -0.772 -67.651 
12.459 -3.987 -70.287 
12.586 -3.896 -70.595 
9.083 -10.287 -67.913 
9.331 -10.321 -67.960 
11.063 -1.016 -70.766 
11.400 -1.021 -71.031 
11.600 8.701 -69.100 
11.629 8.834 -69.172 
-2.853 -7.584 -62.572 
-2.840 -7.540 -62.980 
-6.750 11.692 -64.338 
-6.891 11.851 -64.306 
-12.395 11.839 -66.443 
-12.258 11.888 -66.534 
8.643 12.621 -67.907 
8.453 12.356 -67.654 
6.302 12.339 -64.626 
6.229 12.321 -64.459 
4.449 -6.464 -72.200 
4.610 -6.467 -72.371 
-0.764 2.003 -70.208 
-0.681 2.138 -70.481 
-12.925 4.118 -70.988 
-12.798 4.257 -71.142 
-0.368 10.540 -62.838 
-0.385 10.606 -62.969 
10.883 3.703 -68.405 
11.122 3.678 -68.623 
5.477 -5.363 -69.688 
5.953 -5.230 -70.139 
7.498 4.004 -72.238 
7.704 4.211 -72.623 
-5.491 -11.106 -68.650 
-5.419 -11.015 -68.725 
[...]
POINT_DATA 934 
SCALARS Umean double 1 
LOOKUP_TABLE default
0.20141 
0.20141 
0.19391 
0.19391 
0.12427 
0.12427 
0.34758 
0.34758 
0.19847 
0.19847 
0.17868 
0.17868 
0.01014 
0.01014 
0.19999 
0.19999 
0.16878 
0.16878 
0.21216 
0.21216 
0.08739 
0.08739 
0.12980 
0.12980 
0.12292 
0.12292 
0.22139 
0.22139 
0.13562 
0.13562 
0.27815 
0.27815 
0.21231 
0.21231 
0.14617 
0.14617 
0.11107 
0.11107 
0.12956 
0.12956 
0.18462 
0.18462 
0.13724 
0.13724 
0.09005 
0.09005 
0.10710 
0.10710 
0.14647 
0.14647 
0.20581 
0.20581 
0.29030 
0.29030 
0.20836 
0.20836 
0.14665 
0.14665 
0.12643 
0.12643 
0.18528 
0.18528 
0.06223 
0.06223 
0.20438 
0.20438 
0.21131 
0.21131 
0.07691 
0.07691 
0.08235 
0.08235 
0.12018 
0.12018 
0.09714 
0.09714 
0.19563 
0.19563 
0.22076 
0.22076 
0.16423 
0.16423 
0.19683 
0.19683 
0.07999 
0.07999 
0.17626 
0.17626 
0.12536 
0.12536 
0.36032 
0.36032 
0.11607 
0.11607 
0.13597 
0.13597 
0.11573 
0.11573 
0.15847 
0.15847 
0.12421 
0.12421 
0.15673 
0.15673 
0.19775 
0.19775 
0.10696 
0.10696 
0.19892 
0.19892 
0.12627 
0.12627 
0.06670 
0.06670 
0.15155 
0.15155 
0.10783 
0.10783 
0.09309 
0.09309 
0.16295 
0.16295 
0.08081 
0.08081 
0.05278 
0.05278 
0.09282 
0.09282 
0.14123 
0.14123 
0.12500 
0.12500 
0.13358 
0.13358 
0.21670 
0.21670 
0.14980 
0.14980 
0.20571 
0.20571 
0.13798 
0.13798 
0.11056 
0.11056 
0.24223 
0.24223 
0.12725 
0.12725 
0.11347 
0.11347 
0.15560 
0.15560 
0.21040 
0.21040 
0.25395 
0.25395 
0.10148 
0.10148 
0.14908 
0.14908 
0.09299 
0.09299 
0.12459 
0.12459 
0.07467 
0.07467 
0.07837 
0.07837 
0.21942 
0.21942 
0.20102 
0.20102 
0.11936 
0.11936 
0.08638 
0.08638 
0.18738 
0.18738 
0.09232 
0.09232 
0.22029 
0.22029 
0.05573 
0.05573 
0.10389 
0.10389 
0.16185 
0.16185 
0.24679 
0.24679 
0.16843 
0.16843 
0.20426 
0.20426 
0.15705 
0.15705 
0.13784 
0.13784 
0.11503 
0.11503 
0.14860 
0.14860 
0.27663 
0.27663 
0.15098 
0.15098 
0.22756 
0.22756 
0.10709 
0.10709 
0.05947 
0.05947 
0.22593 
0.22593 
0.24936 
0.24936 
0.16529 
0.16529 
0.12378 
0.12378 
0.24139 
0.24139 
0.11884 
0.11884 
0.16105 
0.16105 
0.08923 
0.08923 
0.07504 
0.07504 
0.18815 
0.18815 
0.19360 
0.19360 
0.04896 
0.04896 
0.09824 
0.09824 
0.11265 
0.11265 
0.10783 
0.10783 
0.17408 
0.17408 
0.27667 
0.27667 
0.11650 
0.11650 
0.06305 
0.06305 
0.21988 
0.21988 
0.07252 
0.07252 
0.18043 
0.18043 
0.05444 
0.05444 
0.31467 
0.31467 
0.21508 
0.21508 
0.23058 
0.23058 
0.21461 
0.21461 
0.15788 
0.15788 
0.10549 
0.10549 
0.16627 
0.16627 
0.12431 
0.12431 
0.16290 
0.16290 
0.17271 
0.17271 
0.24769 
0.24769 
0.09845 
0.09845 
0.16248 
0.16248 
0.10767 
0.10767 
0.22686 
0.22686 
0.24729 
0.24729 
0.26140 
0.26140 
0.13048 
0.13048 
0.11354 
0.11354 
0.25261 
0.25261 
0.17850 
0.17850 
0.20144 
0.20144 
0.17147 
0.17147 
0.08748 
0.08748 
0.12416 
0.12416 
0.23817 
0.23817 
0.27285 
0.27285 
0.09192 
0.09192 
0.14533 
0.14533 
0.20173 
0.20173 
0.11501 
0.11501 
0.10502 
0.10502 
0.15745 
0.15745 
0.19374 
0.19374 
0.13887 
0.13887 
0.09155 
0.09155 
0.28025 
0.28025 
0.17161 
0.17161 
0.09182 
0.09182 
0.20211 
0.20211 
0.21435 
0.21435 
0.12845 
0.12845 
0.07912 
0.07912 
0.29594 
0.29594 
0.09824 
0.09824 
0.11151 
0.11151 
0.08195 
0.08195 
0.20716 
0.20716 
0.21122 
0.21122 
0.12738 
0.12738 
0.21028 
0.21028 
0.08922 
0.08922 
0.18326 
0.18326 
0.31022 
0.31022 
0.10385 
0.10385 
0.23152 
0.23152 
0.20855 
0.20855 
0.13414 
0.13414 
0.13909 
0.13909 
0.08512 
0.08512 
0.08880 
0.08880 
0.11560 
0.11560 
0.08223 
0.08223 
0.08850 
0.08850 
0.17805 
0.17805 
0.19095 
0.19095 
0.29334 
0.29334 
0.11821 
0.11821 
0.23502 
0.23502 
0.19554 
0.19554 
0.29877 
0.29877 
0.16621 
0.16621 
0.10900 
0.10900 
0.09345 
0.09345 
0.08869 
0.08869 
0.11200 
0.11200 
0.17268 
0.17268 
0.12735 
0.12735 
0.21437 
0.21437 
0.07700 
0.07700 
0.20529 
0.20529 
0.10745 
0.10745 
0.08581 
0.08581 
0.20636 
0.20636 
0.09157 
0.09157 
0.11744 
0.11744 
0.15783 
0.15783 
0.12162 
0.12162 
0.07383 
0.07383 
0.16223 
0.16223 
0.33454 
0.33454 
0.24161 
0.24161 
0.06908 
0.06908 
0.14521 
0.14521 
0.18216 
0.18216 
0.22717 
0.22717 
0.07995 
0.07995 
0.05890 
0.05890 
0.10975 
0.10975 
0.26278 
0.26278 
0.16785 
0.16785 
0.25882 
0.25882 
0.05163 
0.05163 
0.20633 
0.20633 
0.17777 
0.17777 
0.04182 
0.04182 
0.18395 
0.18395 
0.12644 
0.12644 
0.09012 
0.09012 
0.07676 
0.07676 
0.08757 
0.08757 
0.23654 
0.23654 
0.08260 
0.08260 
0.11320 
0.11320 
0.18041 
0.18041 
0.08557 
0.08557 
0.17220 
0.17220 
0.05603 
0.05603 
0.28777 
0.28777 
0.10075 
0.10075 
0.09558 
0.09558 
0.36591 
0.36591 
0.13908 
0.13908 
0.15668 
0.15668 
0.29291 
0.29291 
0.22451 
0.22451 
0.20841 
0.20841 
0.22268 
0.22268 
0.04952 
0.04952 
0.16352 
0.16352 
0.10884 
0.10884 
0.18673 
0.18673 
0.18011 
0.18011 
0.14558 
0.14558 
0.19355 
0.19355 
0.15126 
0.15126 
0.13644 
0.13644 
0.23052 
0.23052 
0.19195 
0.19195 
0.18039 
0.18039 
0.13518 
0.13518 
0.15681 
0.15681 
0.23349 
0.23349 
0.18095 
0.18095 
0.11968 
0.11968 
0.07735 
0.07735 
0.12179 
0.12179 
0.19099 
0.19099 
0.15381 
0.15381 
0.33804 
0.33804 
0.25766 
0.25766 
0.23275 
0.23275 
0.03385 
0.03385 
0.05976 
0.05976 
0.21441 
0.21441 
0.24608 
0.24608 
0.23019 
0.23019 
0.11289 
0.11289 
0.16416 
0.16416 
0.07880 
0.07880 
0.09233 
0.09233 
0.16390 
0.16390 
0.14548 
0.14548 
0.25584 
0.25584 
0.06122 
0.06122 
0.22697 
0.22697 
0.06688 
0.06688 
0.15346 
0.15346 
0.22785 
0.22785 
0.05454 
0.05454 
0.16024 
0.16024 
0.12144 
0.12144 
0.13747 
0.13747 
0.21480 
0.21480 
0.16274 
0.16274 
0.17865 
0.17865 
0.27394 
0.27394 
0.22871 
0.22871 
0.13468 
0.13468 
0.17068 
0.17068 
0.05610 
0.05610 
0.15875 
0.15875 
0.23089 
0.23089 
0.16208 
0.16208 
0.09559 
0.09559 
0.08990 
0.08990 
0.14383 
0.14383 
0.14801 
0.14801 
0.21797 
0.21797 
0.14757 
0.14757 
0.22855 
0.22855 
0.15295 
0.15295 
0.08496 
0.08496 
0.11874 
0.11874 
0.11001 
0.11001 
0.08098 
0.08098 
0.08473 
0.08473 
0.12185 
0.12185 
0.29382 
0.29382 
0.07799 
0.07799 
0.24134 
0.24134 
0.20929 
0.20929 
0.11838 
0.11838 
0.11193 
0.11193 
0.11848 
0.11848 
0.12130 
0.12130 
0.08121 
0.08121 
0.20476 
0.20476 
0.35587 
0.35587 
0.12918 
0.12918 
0.21498 
0.21498 
0.14914 
0.14914 
0.19233 
0.19233 
0.21846 
0.21846 
0.16236 
0.16236 
0.19579 
0.19579 
0.17105 
0.17105 
0.19195 
0.19195 
0.22826 
0.22826 
0.09101 
0.09101 
0.22750 
0.22750 
0.08140 
0.08140 
0.03168 
0.03168 
0.12403 
0.12403 
0.11024 
0.11024 
0.19609 
0.19609 
0.20816 
0.20816 
0.15992 
0.15992 
0.23639 
0.23639 
0.08739 
0.08739 
0.10568 
0.10568 
0.07988 
0.07988 
0.19910 
0.19910 
0.20466 
0.20466 
0.15909 
0.15909 
0.21162 
0.21162 
0.23184 
0.23184 
0.10819 
0.10819 
0.24871 
0.24871 
0.20548 
0.20548 
0.25781 
0.25781 
0.16664 
0.16664 
0.20478 
0.20478 
0.11305 
0.11305 
0.11168 
0.11168 
0.13552 
0.13552 
0.08598 
0.08598 
0.19162 
0.19162 
0.18770 
0.18770 
0.22322 
0.22322 
0.12694 
0.12694 
0.19193 
0.19193 
0.05386 
0.05386 
0.14089 
0.14089 
0.13007 
0.13007 
0.06966 
0.06966 
0.15304 
0.15304 
0.19072 
0.19072 
0.22770 
0.22770 
0.14024 
0.14024 
0.07833 
0.07833 
0.18055 
0.18055 
0.18204 
0.18204 
0.10487 
0.10487 
0.15169 
0.15169 
0.07621 
0.07621 
0.18181 
0.18181 
0.19016 
0.19016 
0.09982 
0.09982 
0.05811 
0.05811 
0.08325 
0.08325 
0.08325 
0.08325 
0.12088 
0.12088 
0.11500 
0.11500 
0.24304 
0.24304 
0.12102 
0.12102 
0.16744 
0.16744 
0.22706 
0.22706 
0.08538 
0.08538 
0.09511 
0.09511 
0.21882 
0.21882 
0.16012 
0.16012 
0.13477 
0.13477 
0.11344 
0.11344 
0.14599 
0.14599 
0.13876 
0.13876 
0.14461 
0.14461 
0.29907 
0.29907 
0.08958 
0.08958 
0.04467 
0.04467 
0.22278 
0.22278 
0.05536 
0.05536 
0.06388 
0.06388 
0.10431 
0.10431 
0.07147 
0.07147 
0.30139 
0.30139 
0.14105 
0.14105 
0.21293 
0.21293 
0.04492 
0.04492 
0.10397 
0.10397 
0.14576 
0.14576 
0.09335 
0.09335 
0.09956 
0.09956 
0.28587 
0.28587 
0.27810 
0.27810 
0.11708 
0.11708 
0.16293 
0.16293 
0.17217 
0.17217 
0.14170 
0.14170 
0.20288 
0.20288 
0.18588 
0.18588 
0.14472 
0.14472 
0.06263 
0.06263 
0.07810 
0.07810 
0.13352 
0.13352 
0.17224 
0.17224 
0.07809 
0.07809 
0.18625 
0.18625 
0.16263 
0.16263 
0.16744 
0.16744 
0.15320 
0.15320 
0.13498 
0.13498 
0.18991 
0.18991 
0.17278 
0.17278 
0.08157 
0.08157 
0.13419 
0.13419 
0.26628 
0.26628 
0.09709 
0.09709 
0.08757 
0.08757 
0.26950 
0.26950 
0.22066 
0.22066 
0.16266 
0.16266 
0.24435 
0.24435 
0.26373 
0.26373 
0.19534 
0.19534 
0.10723 
0.10723 
0.20625 
0.20625 
0.28967 
0.28967 
SCALARS Umean_X double 1 
LOOKUP_TABLE default
0.05250 
0.05250 
0.09550 
0.09550 
0.06450 
0.06450 
0.04850 
0.04850 
-0.00250 
-0.00250 
0.03600 
0.03600 
-0.00050 
-0.00050 
0.09500 
0.09500 
0.01150 
0.01150 
0.02800 
0.02800 
-0.04700 
-0.04700 
0.09800 
0.09800 
0.02500 
0.02500 
0.01100 
0.01100 
-0.00900 
-0.00900 
0.08050 
0.08050 
0.05600 
0.05600 
-0.00000 
-0.00000 
0.05800 
0.05800 
-0.07700 
-0.07700 
0.03950 
0.03950 
0.11050 
0.11050 
-0.05550 
-0.05550 
-0.01600 
-0.01600 
-0.12850 
-0.12850 
0.02500 
0.02500 
0.09850 
0.09850 
-0.02350 
-0.02350 
0.03750 
0.03750 
0.04300 
0.04300 
0.05100 
0.05100 
-0.04950 
-0.04950 
0.12550 
0.12550 
-0.00650 
-0.00650 
-0.01450 
-0.01450 
0.07100 
0.07100 
0.04300 
0.04300 
0.05200 
0.05200 
0.07300 
0.07300 
0.07900 
0.07900 
0.04850 
0.04850 
0.06850 
0.06850 
-0.05600 
-0.05600 
0.10700 
0.10700 
0.09900 
0.09900 
0.17550 
0.17550 
0.06750 
0.06750 
-0.01400 
-0.01400 
0.02350 
0.02350 
0.11850 
0.11850 
0.08800 
0.08800 
0.07650 
0.07650 
0.12150 
0.12150 
0.06450 
0.06450 
0.16300 
0.16300 
0.11750 
0.11750 
0.05600 
0.05600 
0.04400 
0.04400 
0.03500 
0.03500 
-0.06400 
-0.06400 
0.02750 
0.02750 
0.01000 
0.01000 
-0.03050 
-0.03050 
0.08000 
0.08000 
0.05100 
0.05100 
0.01800 
0.01800 
0.03250 
0.03250 
0.06250 
0.06250 
-0.01600 
-0.01600 
-0.01700 
-0.01700 
0.02600 
0.02600 
-0.02850 
-0.02850 
0.02150 
0.02150 
-0.03800 
-0.03800 
-0.01700 
-0.01700 
0.03350 
0.03350 
0.07950 
0.07950 
0.07750 
0.07750 
0.01600 
0.01600 
0.07600 
0.07600 
0.06800 
0.06800 
0.01900 
0.01900 
-0.03350 
-0.03350 
0.05850 
0.05850 
0.00900 
0.00900 
-0.02800 
-0.02800 
-0.07050 
-0.07050 
-0.01400 
-0.01400 
0.06700 
0.06700 
0.02700 
0.02700 
-0.00900 
-0.00900 
-0.02300 
-0.02300 
0.05900 
0.05900 
0.06050 
0.06050 
0.01700 
0.01700 
0.10150 
0.10150 
-0.02000 
-0.02000 
0.04650 
0.04650 
0.04950 
0.04950 
0.07650 
0.07650 
0.08100 
0.08100 
0.16050 
0.16050 
0.07900 
0.07900 
0.11350 
0.11350 
0.04150 
0.04150 
-0.01850 
-0.01850 
0.09700 
0.09700 
0.03950 
0.03950 
0.11600 
0.11600 
0.05450 
0.05450 
0.00300 
0.00300 
-0.00850 
-0.00850 
-0.02900 
-0.02900 
0.06650 
0.06650 
-0.02700 
-0.02700 
0.06500 
0.06500 
0.06600 
0.06600 
0.00100 
0.00100 
0.08000 
0.08000 
-0.04150 
-0.04150 
0.07200 
0.07200 
0.03200 
0.03200 
0.06400 
0.06400 
0.00150 
0.00150 
-0.02350 
-0.02350 
0.06750 
0.06750 
0.02550 
0.02550 
0.04850 
0.04850 
0.02550 
0.02550 
0.14950 
0.14950 
0.05750 
0.05750 
0.13950 
0.13950 
0.03900 
0.03900 
0.13250 
0.13250 
0.04400 
0.04400 
-0.00150 
-0.00150 
-0.02600 
-0.02600 
0.03550 
0.03550 
0.09000 
0.09000 
0.15950 
0.15950 
-0.07400 
-0.07400 
0.06200 
0.06200 
0.06200 
0.06200 
0.13200 
0.13200 
0.06350 
0.06350 
0.11850 
0.11850 
0.03300 
0.03300 
-0.10350 
-0.10350 
0.11850 
0.11850 
-0.04350 
-0.04350 
0.06100 
0.06100 
0.07900 
0.07900 
0.03150 
0.03150 
-0.03650 
-0.03650 
0.07200 
0.07200 
0.08700 
0.08700 
-0.07900 
-0.07900 
0.11450 
0.11450 
0.02150 
0.02150 
0.06400 
0.06400 
0.03900 
0.03900 
-0.00350 
-0.00350 
0.08100 
0.08100 
0.10750 
0.10750 
0.03250 
0.03250 
0.07650 
0.07650 
-0.08650 
-0.08650 
-0.06450 
-0.06450 
0.08400 
0.08400 
0.10700 
0.10700 
0.07800 
0.07800 
0.06700 
0.06700 
0.10550 
0.10550 
0.09200 
0.09200 
0.01500 
0.01500 
0.06500 
0.06500 
0.11300 
0.11300 
0.04200 
0.04200 
0.03650 
0.03650 
0.19300 
0.19300 
-0.01850 
-0.01850 
0.15500 
0.15500 
0.10850 
0.10850 
0.07200 
0.07200 
0.05900 
0.05900 
0.11050 
0.11050 
0.08050 
0.08050 
-0.00150 
-0.00150 
0.07250 
0.07250 
0.04750 
0.04750 
-0.03800 
-0.03800 
-0.00650 
-0.00650 
0.07400 
0.07400 
0.01650 
0.01650 
0.09200 
0.09200 
0.10800 
0.10800 
-0.02750 
-0.02750 
-0.05800 
-0.05800 
0.11850 
0.11850 
0.09550 
0.09550 
0.12900 
0.12900 
0.01000 
0.01000 
0.04000 
0.04000 
0.02200 
0.02200 
-0.07200 
-0.07200 
0.06350 
0.06350 
0.12400 
0.12400 
0.16850 
0.16850 
0.01450 
0.01450 
0.00650 
0.00650 
-0.07050 
-0.07050 
0.06850 
0.06850 
-0.09500 
-0.09500 
-0.03650 
-0.03650 
0.08050 
0.08050 
0.04150 
0.04150 
0.06350 
0.06350 
-0.00850 
-0.00850 
0.11950 
0.11950 
0.23800 
0.23800 
0.10300 
0.10300 
0.03600 
0.03600 
0.01200 
0.01200 
0.10400 
0.10400 
0.18400 
0.18400 
0.04200 
0.04200 
-0.04750 
-0.04750 
-0.00050 
-0.00050 
0.13950 
0.13950 
0.07150 
0.07150 
0.10000 
0.10000 
0.02800 
0.02800 
0.05300 
0.05300 
0.12400 
0.12400 
-0.01050 
-0.01050 
0.12350 
0.12350 
-0.10000 
-0.10000 
-0.01000 
-0.01000 
-0.04800 
-0.04800 
0.03750 
0.03750 
0.09950 
0.09950 
0.04400 
0.04400 
0.07500 
0.07500 
0.09800 
0.09800 
0.06600 
0.06600 
-0.00050 
-0.00050 
-0.05450 
-0.05450 
0.09300 
0.09300 
-0.01300 
-0.01300 
-0.00100 
-0.00100 
0.22400 
0.22400 
0.03000 
0.03000 
0.08650 
0.08650 
0.17250 
0.17250 
-0.01850 
-0.01850 
0.12650 
0.12650 
0.12100 
0.12100 
0.00100 
0.00100 
0.14050 
0.14050 
0.04250 
0.04250 
0.09200 
0.09200 
0.05200 
0.05200 
0.01300 
0.01300 
0.09800 
0.09800 
0.11400 
0.11400 
0.02650 
0.02650 
0.09900 
0.09900 
0.05300 
0.05300 
0.01100 
0.01100 
0.04500 
0.04500 
0.10700 
0.10700 
-0.02500 
-0.02500 
0.04600 
0.04600 
0.10900 
0.10900 
-0.07650 
-0.07650 
0.03000 
0.03000 
0.11800 
0.11800 
0.09150 
0.09150 
0.14700 
0.14700 
0.20350 
0.20350 
0.09100 
0.09100 
0.01300 
0.01300 
-0.00850 
-0.00850 
0.09500 
0.09500 
0.05100 
0.05100 
0.15550 
0.15550 
0.01800 
0.01800 
0.14900 
0.14900 
0.02000 
0.02000 
0.02200 
0.02200 
0.06850 
0.06850 
0.11750 
0.11750 
0.13350 
0.13350 
0.00950 
0.00950 
0.12550 
0.12550 
-0.04500 
-0.04500 
0.01750 
0.01750 
0.17550 
0.17550 
0.00650 
0.00650 
0.03550 
0.03550 
0.08900 
0.08900 
0.11550 
0.11550 
0.03900 
0.03900 
0.02500 
0.02500 
0.10750 
0.10750 
0.17700 
0.17700 
0.06900 
0.06900 
-0.07600 
-0.07600 
0.11950 
0.11950 
0.02700 
0.02700 
0.14250 
0.14250 
0.13400 
0.13400 
0.11100 
0.11100 
0.08200 
0.08200 
-0.01750 
-0.01750 
0.02400 
0.02400 
0.11750 
0.11750 
-0.09500 
-0.09500 
0.07400 
0.07400 
0.09400 
0.09400 
0.11950 
0.11950 
0.05650 
0.05650 
0.08200 
0.08200 
-0.04750 
-0.04750 
0.04050 
0.04050 
0.02250 
0.02250 
0.09700 
0.09700 
0.22200 
0.22200 
-0.00500 
-0.00500 
0.02700 
0.02700 
0.11300 
0.11300 
0.05800 
0.05800 
0.08400 
0.08400 
0.11150 
0.11150 
0.01850 
0.01850 
0.07700 
0.07700 
0.17450 
0.17450 
0.17550 
0.17550 
0.06600 
0.06600 
0.15350 
0.15350 
-0.04300 
-0.04300 
0.05050 
0.05050 
0.03600 
0.03600 
-0.00750 
-0.00750 
0.07850 
0.07850 
0.05800 
0.05800 
-0.00500 
-0.00500 
0.07750 
0.07750 
0.00150 
0.00150 
0.11050 
0.11050 
0.00250 
0.00250 
0.00100 
0.00100 
0.03900 
0.03900 
0.08850 
0.08850 
0.13850 
0.13850 
0.09700 
0.09700 
0.06500 
0.06500 
0.03550 
0.03550 
0.04550 
0.04550 
0.01750 
0.01750 
0.00700 
0.00700 
0.07750 
0.07750 
0.19800 
0.19800 
0.08050 
0.08050 
0.15500 
0.15500 
0.14850 
0.14850 
0.03000 
0.03000 
0.08000 
0.08000 
-0.05250 
-0.05250 
0.10950 
0.10950 
0.07150 
0.07150 
0.14450 
0.14450 
0.02650 
0.02650 
0.06350 
0.06350 
0.03050 
0.03050 
0.08100 
0.08100 
0.10050 
0.10050 
0.04150 
0.04150 
0.12350 
0.12350 
0.06900 
0.06900 
0.11300 
0.11300 
0.00800 
0.00800 
0.13700 
0.13700 
-0.00950 
-0.00950 
0.05950 
0.05950 
-0.01850 
-0.01850 
0.14100 
0.14100 
0.05400 
0.05400 
0.08250 
0.08250 
0.03950 
0.03950 
0.09600 
0.09600 
0.01750 
0.01750 
0.01700 
0.01700 
0.10550 
0.10550 
-0.04900 
-0.04900 
-0.00550 
-0.00550 
0.03100 
0.03100 
0.07200 
0.07200 
0.04750 
0.04750 
-0.04300 
-0.04300 
0.05950 
0.05950 
0.01350 
0.01350 
0.01700 
0.01700 
0.16300 
0.16300 
0.10350 
0.10350 
0.08550 
0.08550 
0.06000 
0.06000 
0.01300 
0.01300 
0.06150 
0.06150 
0.19500 
0.19500 
0.03050 
0.03050 
0.06850 
0.06850 
0.09400 
0.09400 
-0.06300 
-0.06300 
0.02250 
0.02250 
0.07550 
0.07550 
0.05450 
0.05450 
-0.02050 
-0.02050 
-0.02550 
-0.02550 
-0.12900 
-0.12900 
0.01600 
0.01600 
0.01600 
0.01600 
0.07550 
0.07550 
-0.02650 
-0.02650 
0.15500 
0.15500 
0.02850 
0.02850 
0.00950 
0.00950 
-0.02650 
-0.02650 
-0.05500 
-0.05500 
0.04300 
0.04300 
-0.06450 
-0.06450 
0.07750 
0.07750 
0.09350 
0.09350 
0.10650 
0.10650 
-0.10400 
-0.10400 
0.02150 
0.02150 
0.00050 
0.00050 
0.08400 
0.08400 
0.01400 
0.01400 
0.11250 
0.11250 
0.07750 
0.07750 
0.05900 
0.05900 
0.00300 
0.00300 
0.00400 
0.00400 
0.13850 
0.13850 
-0.06950 
-0.06950 
0.01200 
0.01200 
0.08150 
0.08150 
0.06650 
0.06650 
0.01250 
0.01250 
0.09250 
0.09250 
0.10150 
0.10150 
-0.01800 
-0.01800 
0.05500 
0.05500 
0.04850 
0.04850 
0.11950 
0.11950 
-0.00150 
-0.00150 
-0.04800 
-0.04800 
0.13000 
0.13000 
0.07350 
0.07350 
-0.01300 
-0.01300 
0.11550 
0.11550 
-0.00650 
-0.00650 
0.14700 
0.14700 
-0.01300 
-0.01300 
0.16300 
0.16300 
0.23100 
0.23100 
SCALARS Umean_Y double 1 
LOOKUP_TABLE default
0.05150 
0.05150 
0.10700 
0.10700 
0.07100 
0.07100 
0.08700 
0.08700 
0.13550 
0.13550 
0.12250 
0.12250 
-0.00550 
-0.00550 
0.15800 
0.15800 
0.14200 
0.14200 
0.16800 
0.16800 
-0.07350 
-0.07350 
0.08500 
0.08500 
0.11850 
0.11850 
0.17550 
0.17550 
0.02750 
0.02750 
0.11100 
0.11100 
0.09950 
0.09950 
0.14600 
0.14600 
0.01800 
0.01800 
0.04700 
0.04700 
0.11550 
0.11550 
0.05500 
0.05500 
0.06050 
0.06050 
-0.09700 
-0.09700 
-0.06950 
-0.06950 
0.12950 
0.12950 
0.10400 
0.10400 
0.08450 
0.08450 
0.05300 
0.05300 
0.05850 
0.05850 
0.13850 
0.13850 
0.03650 
0.03650 
0.03000 
0.03000 
0.11600 
0.11600 
0.00200 
0.00200 
0.02950 
0.02950 
0.06900 
0.06900 
-0.00300 
-0.00300 
0.03000 
0.03000 
0.10650 
0.10650 
0.09550 
0.09550 
0.05700 
0.05700 
0.04950 
0.04950 
0.09600 
0.09600 
0.05800 
0.05800 
0.07750 
0.07750 
0.03550 
0.03550 
0.12950 
0.12950 
0.08750 
0.08750 
0.06950 
0.06950 
0.03350 
0.03350 
0.03400 
0.03400 
0.11850 
0.11850 
0.04500 
0.04500 
0.09600 
0.09600 
0.04300 
0.04300 
-0.03200 
-0.03200 
0.09950 
0.09950 
0.03150 
0.03150 
0.05000 
0.05000 
0.13200 
0.13200 
-0.04250 
-0.04250 
0.00250 
0.00250 
0.04600 
0.04600 
0.12100 
0.12100 
0.05250 
0.05250 
0.02800 
0.02800 
0.13450 
0.13450 
0.07700 
0.07700 
0.19000 
0.19000 
-0.00100 
-0.00100 
0.06600 
0.06600 
0.10650 
0.10650 
0.05650 
0.05650 
0.05550 
0.05550 
0.14400 
0.14400 
0.15500 
0.15500 
0.17050 
0.17050 
0.04700 
0.04700 
0.00800 
0.00800 
0.02450 
0.02450 
0.12150 
0.12150 
0.03300 
0.03300 
0.04300 
0.04300 
-0.02750 
-0.02750 
0.14200 
0.14200 
0.03800 
0.03800 
0.07300 
0.07300 
0.04150 
0.04150 
0.01500 
0.01500 
0.05150 
0.05150 
0.03250 
0.03250 
0.08550 
0.08550 
0.07150 
0.07150 
0.19250 
0.19250 
0.10650 
0.10650 
0.09350 
0.09350 
-0.00150 
-0.00150 
-0.02050 
-0.02050 
-0.03000 
-0.03000 
0.11000 
0.11000 
0.03850 
0.03850 
-0.03050 
-0.03050 
0.06700 
0.06700 
0.09250 
0.09250 
0.01300 
0.01300 
0.05500 
0.05500 
0.19250 
0.19250 
0.09200 
0.09200 
0.09600 
0.09600 
0.03000 
0.03000 
0.01900 
0.01900 
-0.01150 
-0.01150 
0.05250 
0.05250 
0.04850 
0.04850 
0.13650 
0.13650 
0.10800 
0.10800 
0.04050 
0.04050 
0.03300 
0.03300 
0.05600 
0.05600 
0.07200 
0.07200 
-0.01450 
-0.01450 
0.10100 
0.10100 
-0.06450 
-0.06450 
0.04650 
0.04650 
0.04200 
0.04200 
0.04850 
0.04850 
0.04450 
0.04450 
0.04800 
0.04800 
0.11250 
0.11250 
0.16300 
0.16300 
0.16500 
0.16500 
0.03850 
0.03850 
0.07150 
0.07150 
0.02700 
0.02700 
0.12850 
0.12850 
0.10600 
0.10600 
0.15400 
0.15400 
0.08700 
0.08700 
0.09750 
0.09750 
-0.03200 
-0.03200 
0.12450 
0.12450 
0.05650 
0.05650 
0.04050 
0.04050 
0.09100 
0.09100 
0.04800 
0.04800 
0.08750 
0.08750 
0.04650 
0.04650 
0.04500 
0.04500 
0.03000 
0.03000 
0.09200 
0.09200 
0.03750 
0.03750 
0.06600 
0.06600 
0.08900 
0.08900 
0.04750 
0.04750 