# vtk DataFile Version 2.1 
Trajects from timestep 104 with color option 
ASCII 
 
DATASET POLYDATA POINTS 1036 float 
-9.378 -1.387 -74.396 
-9.234 -1.231 -74.467 
5.727 9.252 -72.091 
5.734 9.355 -72.120 
6.158 5.874 -71.737 
6.148 6.149 -71.854 
3.452 2.926 -73.301 
3.585 3.206 -73.363 
-6.087 1.237 -70.511 
-5.990 1.398 -70.556 
-7.230 5.634 -72.385 
-7.145 5.746 -72.388 
-11.167 10.409 -72.623 
-11.130 10.559 -72.651 
-14.539 10.149 -74.363 
-14.459 10.182 -74.319 
-3.550 9.425 -71.252 
-3.392 9.539 -71.352 
10.221 5.212 -72.983 
10.258 5.455 -73.171 
4.105 10.212 -70.178 
4.020 10.372 -70.219 
1.073 -6.843 -76.229 
1.153 -6.808 -76.264 
7.927 2.939 -69.660 
8.062 3.127 -69.832 
1.440 9.307 -69.805 
1.397 9.518 -69.789 
0.448 9.071 -68.258 
0.536 9.194 -68.252 
-3.955 -3.209 -70.985 
-3.928 -2.996 -70.981 
3.747 8.170 -68.921 
3.829 8.368 -68.953 
2.774 -6.111 -70.154 
2.950 -5.909 -70.362 
6.507 8.653 -74.396 
6.550 8.756 -74.488 
0.976 4.950 -68.040 
1.055 5.149 -68.009 
-5.361 12.525 -69.524 
-5.368 12.680 -69.501 
-8.676 0.770 -70.184 
-8.531 0.964 -70.293 
-10.665 2.436 -70.473 
-10.739 2.716 -70.339 
-8.489 -2.265 -73.843 
-8.368 -2.100 -73.944 
-9.685 7.774 -65.900 
-9.708 8.178 -65.992 
0.365 7.239 -70.517 
0.473 7.534 -70.432 
-1.378 8.419 -67.011 
-1.322 8.683 -66.919 
1.705 3.078 -72.773 
1.731 3.271 -72.795 
3.455 -1.420 -68.567 
3.572 -1.245 -68.775 
0.424 -2.400 -71.491 
0.554 -2.193 -71.600 
-8.085 -6.984 -72.439 
-7.881 -6.743 -72.524 
4.375 12.131 -67.816 
4.339 12.331 -67.927 
-1.707 11.027 -65.890 
-1.636 11.207 -65.888 
0.642 6.645 -67.654 
0.723 6.851 -67.571 
-6.071 -1.343 -72.713 
-5.974 -1.096 -72.811 
-9.304 9.969 -69.400 
-9.156 10.092 -69.356 
6.078 0.958 -64.958 
6.138 1.269 -65.133 
0.032 6.426 -65.817 
0.066 6.629 -65.670 
-4.068 -5.471 -71.089 
-3.938 -5.196 -71.118 
8.003 0.039 -68.008 
8.164 0.280 -68.277 
-3.504 6.949 -73.782 
-3.369 7.037 -73.770 
-3.056 6.731 -69.247 
-2.887 7.019 -69.240 
0.745 10.748 -64.556 
0.758 11.071 -64.377 
-0.609 4.590 -68.754 
-0.596 4.839 -68.694 
-9.386 -0.313 -71.515 
-9.413 -0.149 -71.674 
-5.332 -2.095 -66.462 
-5.269 -1.854 -66.566 
1.810 1.520 -68.610 
1.954 1.758 -68.675 
-6.064 8.506 -68.652 
-5.890 8.579 -68.606 
-0.422 5.367 -69.393 
-0.329 5.597 -69.378 
-6.084 0.427 -64.353 
-6.009 0.673 -64.319 
6.259 10.124 -69.367 
6.234 10.229 -69.426 
5.566 7.627 -73.421 
5.476 7.860 -73.636 
1.615 9.679 -67.091 
1.588 9.862 -66.962 
4.350 -3.171 -70.740 
4.506 -2.912 -70.989 
8.132 -4.109 -67.852 
8.151 -3.890 -67.852 
6.725 7.361 -73.875 
6.658 7.622 -74.202 
-10.321 5.118 -71.778 
-10.138 5.337 -71.687 
2.461 5.584 -64.680 
2.637 5.793 -64.731 
4.696 -10.875 -69.248 
4.823 -10.726 -69.596 
5.786 6.638 -64.721 
5.891 6.759 -64.760 
5.708 -4.364 -67.565 
5.793 -4.154 -67.884 
-1.943 -2.291 -63.503 
-1.740 -1.910 -63.834 
11.458 8.110 -71.529 
11.617 8.193 -71.663 
-10.133 -1.250 -70.653 
-10.053 -1.031 -70.767 
2.529 4.424 -65.102 
2.685 4.574 -65.225 
-8.567 7.607 -66.779 
-8.495 7.793 -66.750 
-7.040 3.391 -64.612 
-7.018 3.623 -64.617 
-4.458 -11.684 -67.495 
-4.242 -11.584 -67.585 
4.076 9.242 -69.897 
4.080 9.501 -69.915 
-4.932 4.612 -63.345 
-5.036 4.884 -63.212 
-11.984 6.782 -66.730 
-12.043 7.041 -66.850 
-4.580 4.967 -70.089 
-4.506 5.094 -70.141 
-11.952 4.786 -71.147 
-11.896 4.988 -71.181 
-0.408 3.876 -75.691 
-0.381 4.018 -75.663 
-2.615 2.785 -72.736 
-2.505 2.962 -72.637 
8.338 -5.020 -68.173 
8.398 -4.816 -68.223 
-3.570 11.280 -74.452 
-3.643 11.376 -74.460 
-4.809 5.325 -65.543 
-4.668 5.519 -65.384 
6.543 -4.583 -66.870 
6.718 -4.364 -67.197 
7.012 12.983 -66.928 
6.976 13.143 -66.819 
3.230 -10.359 -66.936 
3.381 -10.225 -67.178 
2.175 0.893 -71.316 
2.344 1.141 -71.313 
6.219 -5.448 -65.360 
6.381 -5.223 -65.583 
-10.017 1.843 -63.187 
-9.967 2.118 -63.192 
-8.838 -7.075 -66.414 
-8.739 -6.959 -66.625 
-2.173 -8.096 -69.245 
-2.027 -7.821 -69.402 
-2.774 1.887 -74.163 
-2.674 2.041 -74.151 
-7.936 -4.057 -75.402 
-7.710 -3.925 -75.511 
13.439 1.527 -65.885 
13.461 1.768 -66.130 
9.209 11.091 -72.384 
9.126 11.172 -72.609 
11.229 -8.187 -66.376 
11.296 -8.080 -66.276 
-1.398 0.304 -64.515 
-1.311 0.511 -64.617 
-15.040 4.830 -70.830 
-15.002 4.908 -70.874 
-8.297 3.142 -75.578 
-8.222 3.205 -75.587 
-13.523 0.959 -67.484 
-13.526 1.174 -67.539 
-1.191 11.082 -70.757 
-1.205 11.287 -70.777 
13.494 -5.326 -65.752 
13.683 -5.217 -65.599 
-2.422 -11.177 -66.209 
-2.274 -11.086 -66.315 
10.737 -2.089 -68.198 
10.681 -2.056 -68.205 
4.162 -10.289 -65.298 
4.302 -10.150 -65.578 
0.231 4.790 -68.781 
0.256 5.019 -68.782 
0.287 -9.402 -65.124 
0.505 -9.229 -65.215 
4.155 -1.016 -68.581 
4.307 -0.866 -68.942 
-1.398 9.434 -64.781 
-1.362 9.659 -64.710 
1.197 -10.904 -66.631 
1.340 -10.815 -66.782 
-12.981 -5.171 -69.063 
-12.920 -5.032 -69.135 
-4.446 -4.105 -65.472 
-4.257 -3.914 -65.583 
9.817 2.592 -60.835 
9.874 2.918 -61.063 
12.238 4.992 -65.716 
12.393 5.145 -65.869 
-11.070 9.952 -70.420 
-10.939 10.093 -70.459 
-5.662 -4.424 -69.071 
-5.633 -4.122 -69.239 
7.506 -8.786 -74.220 
7.684 -8.687 -74.405 
6.584 0.832 -64.266 
6.642 1.167 -64.425 
-10.122 2.329 -68.013 
-10.096 2.559 -68.162 
-3.937 3.716 -61.898 
-3.888 3.865 -61.877 
-0.605 2.955 -73.679 
-0.630 3.230 -73.670 
-11.395 9.078 -69.848 
-11.307 9.294 -69.877 
-0.080 -7.717 -64.735 
0.053 -7.573 -64.948 
-8.208 1.187 -67.856 
-8.114 1.387 -68.057 
-12.950 2.569 -71.705 
-12.752 2.891 -71.658 
-4.164 11.519 -61.420 
-4.213 11.836 -61.369 
-1.353 9.272 -71.557 
-1.235 9.421 -71.571 
-6.628 10.096 -66.671 
-6.433 10.318 -66.629 
4.062 1.617 -65.066 
4.107 1.778 -65.176 
-0.796 -0.821 -62.199 
-0.684 -0.670 -62.242 
-2.459 -6.463 -63.361 
-2.417 -6.278 -63.560 
-5.704 6.797 -62.037 
-5.743 6.898 -61.876 
-2.358 -11.418 -68.500 
-2.254 -11.364 -68.675 
3.093 12.148 -66.556 
3.051 12.383 -66.686 
-3.309 -9.716 -67.448 
-3.172 -9.691 -67.575 
-6.050 5.158 -74.059 
-5.942 5.263 -74.073 
8.835 0.486 -64.536 
8.887 0.777 -64.687 
2.452 3.567 -64.505 
2.507 3.727 -64.682 
-6.592 -9.053 -66.143 
-6.519 -8.996 -66.253 
1.241 -10.879 -64.044 
1.476 -10.717 -64.250 
11.076 10.590 -69.386 
11.119 10.378 -69.476 
-4.655 7.829 -65.020 
-4.504 8.042 -64.780 
16.278 0.929 -74.224 
16.284 1.034 -74.431 
-15.959 -11.216 -74.137 
-15.870 -11.100 -74.275 
-5.197 -8.253 -67.678 
-5.142 -8.205 -67.662 
6.943 4.586 -67.531 
7.109 4.786 -67.610 
9.820 8.850 -67.523 
9.791 8.969 -67.572 
-3.848 10.790 -66.106 
-3.681 10.985 -66.096 
2.396 0.092 -64.387 
2.508 0.240 -64.399 
10.106 1.988 -73.291 
10.192 2.182 -73.484 
-13.215 4.320 -73.405 
-12.996 4.367 -73.553 
9.374 11.517 -66.588 
9.375 11.599 -66.553 
12.047 0.565 -66.045 
12.158 0.713 -66.246 
13.941 7.865 -69.669 
14.082 7.890 -69.846 
-5.843 7.302 -62.464 
-5.885 7.497 -62.262 
10.514 -2.600 -64.908 
10.529 -2.326 -64.886 
-8.440 -9.312 -65.594 
-8.432 -9.229 -65.812 
-13.466 2.958 -72.816 
-13.326 3.079 -72.798 
2.514 -4.605 -62.742 
2.830 -4.438 -62.998 
-7.916 -1.596 -61.945 
-7.822 -1.394 -62.006 
-2.635 12.394 -64.783 
-2.560 12.626 -64.754 
-2.877 1.382 -62.548 
-2.848 1.552 -62.546 
-9.490 -2.451 -64.315 
-9.329 -2.218 -64.624 
-1.351 7.214 -74.124 
-1.234 7.405 -74.166 
-10.672 -6.833 -72.181 
-10.564 -6.602 -72.456 
4.251 12.476 -65.274 
4.298 12.723 -65.382 
14.075 5.705 -68.718 
14.242 5.896 -68.914 
-9.457 1.311 -68.634 
-9.313 1.537 -68.799 
-1.674 2.141 -64.383 
-1.697 2.331 -64.327 
-2.624 3.551 -65.594 
-2.530 3.862 -65.564 
-4.880 -7.810 -69.627 
-4.736 -7.617 -69.542 
1.105 -7.462 -71.541 
1.317 -7.274 -71.780 
-5.651 -1.824 -61.363 
-5.605 -1.715 -61.288 
-10.036 -9.261 -66.846 
-10.098 -9.264 -66.991 
-4.083 -2.054 -68.484 
-4.026 -1.718 -68.446 
-1.038 -5.898 -72.823 
-0.977 -5.687 -72.807 
8.164 2.791 -58.903 
8.188 3.102 -59.204 
-2.982 -8.148 -72.839 
-3.059 -7.919 -72.710 
4.385 -6.915 -65.517 
4.636 -6.706 -65.870 
-13.976 7.946 -69.848 
-14.105 8.062 -69.892 
-9.503 -1.730 -64.018 
-9.384 -1.551 -64.203 
7.919 -12.074 -66.709 
7.920 -11.792 -66.708 
-14.269 9.839 -72.569 
-14.182 9.846 -72.589 
14.506 -2.664 -69.074 
14.359 -2.653 -69.101 
-13.842 10.767 -74.862 
-13.832 10.926 -74.854 
2.307 -4.736 -67.269 
2.515 -4.563 -67.353 
-5.520 3.696 -63.710 
-5.533 4.000 -63.724 
1.582 2.090 -68.978 
1.696 2.350 -69.020 
3.084 -11.512 -66.222 
3.175 -11.456 -66.444 
-9.774 3.175 -64.144 
-9.784 3.467 -64.125 
-9.127 13.041 -66.576 
-9.104 13.127 -66.613 
14.671 2.286 -67.929 
14.730 2.341 -68.099 
16.136 3.880 -70.671 
16.187 3.896 -70.794 
-15.198 9.833 -77.794 
-15.193 9.863 -77.874 
-9.483 -9.574 -64.405 
-9.422 -9.439 -64.573 
7.236 7.285 -73.638 
7.182 7.497 -73.887 
-0.205 -7.454 -72.995 
-0.154 -7.315 -72.974 
-15.645 2.822 -71.468 
-15.584 2.851 -71.371 
12.150 4.183 -69.392 
12.291 4.385 -69.592 
9.631 -7.378 -65.761 
9.739 -7.200 -65.817 
5.076 -6.606 -71.542 
5.265 -6.479 -71.712 
-1.139 3.497 -65.370 
-1.097 3.670 -65.278 
6.410 2.333 -67.261 
6.606 2.580 -67.390 
-10.996 -1.558 -69.897 
-10.976 -1.381 -70.101 
13.959 -1.978 -66.050 
14.023 -1.833 -65.996 
-12.094 -2.255 -63.097 
-12.068 -2.053 -63.595 
-13.689 -5.651 -69.285 
-13.690 -5.487 -69.364 
-6.070 -11.131 -75.358 
-5.933 -11.036 -75.392 
-7.156 7.644 -75.913 
-7.053 7.700 -75.899 
15.586 5.890 -65.787 
15.789 6.081 -65.943 
-12.627 8.670 -66.815 
-12.735 9.018 -66.834 
-6.145 -9.959 -76.887 
-6.042 -9.933 -76.965 
-9.583 5.632 -73.448 
-9.557 5.732 -73.568 
11.187 -4.612 -64.083 
11.386 -4.337 -64.062 
-1.993 9.805 -65.995 
-1.897 9.967 -65.878 
-11.304 -5.566 -71.467 
-11.161 -5.248 -71.507 
-12.207 -2.122 -64.520 
-12.204 -1.761 -64.885 
1.005 2.167 -61.557 
1.089 2.396 -61.668 
-13.613 11.718 -74.401 
-13.581 11.827 -74.355 
17.225 2.152 -68.550 
17.268 2.246 -68.641 
-11.428 6.039 -73.975 
-11.241 6.051 -74.037 
-0.141 -3.958 -67.825 
0.022 -3.755 -67.962 
9.561 -11.521 -72.082 
9.761 -11.501 -72.045 
14.755 1.049 -74.671 
14.781 1.221 -74.797 
-3.871 -7.724 -62.804 
-3.899 -7.689 -62.973 
-12.515 -6.547 -72.051 
-12.427 -6.304 -72.077 
[...]
POINT_DATA 1036 
SCALARS Umean double 1 
LOOKUP_TABLE default
0.11193 
0.11193 
0.05362 
0.05362 
0.14951 
0.14951 
0.15806 
0.15806 
0.09664 
0.09664 
0.07032 
0.07032 
0.07851 
0.07851 
0.04854 
0.04854 
0.10950 
0.10950 
0.15473 
0.15473 
0.09288 
0.09288 
0.04704 
0.04704 
0.14418 
0.14418 
0.10797 
0.10797 
0.07568 
0.07568 
0.10737 
0.10737 
0.10834 
0.10834 
0.16959 
0.16959 
0.07232 
0.07232 
0.10817 
0.10817 
0.07843 
0.07843 
0.13280 
0.13280 
0.15956 
0.15956 
0.11409 
0.11409 
0.20749 
0.20749 
0.16272 
0.16272 
0.14256 
0.14256 
0.09799 
0.09799 
0.14797 
0.14797 
0.13382 
0.13382 
0.16349 
0.16349 
0.11578 
0.11578 
0.09675 
0.09675 
0.11820 
0.11820 
0.14144 
0.14144 
0.09870 
0.09870 
0.18093 
0.18093 
0.12647 
0.12647 
0.15278 
0.15278 
0.19771 
0.19771 
0.08080 
0.08080 
0.16700 
0.16700 
0.18476 
0.18476 
0.12823 
0.12823 
0.11501 
0.11501 
0.13497 
0.13497 
0.14283 
0.14283 
0.09711 
0.09711 
0.12427 
0.12427 
0.12971 
0.12971 
0.06150 
0.06150 
0.16478 
0.16478 
0.11276 
0.11276 
0.19584 
0.19584 
0.10991 
0.10991 
0.21186 
0.21186 
0.14978 
0.14978 
0.13898 
0.13898 
0.19965 
0.19965 
0.08244 
0.08244 
0.19563 
0.19563 
0.27200 
0.27200 
0.11194 
0.11194 
0.12977 
0.12977 
0.12446 
0.12446 
0.10077 
0.10077 
0.11655 
0.11655 
0.12724 
0.12724 
0.12983 
0.12983 
0.16007 
0.16007 
0.14574 
0.14574 
0.07796 
0.07796 
0.10618 
0.10618 
0.07362 
0.07362 
0.11536 
0.11536 
0.10922 
0.10922 
0.06043 
0.06043 
0.14387 
0.14387 
0.21536 
0.21536 
0.09846 
0.09846 
0.15758 
0.15758 
0.15006 
0.15006 
0.17790 
0.17790 
0.13978 
0.13978 
0.13017 
0.13017 
0.17435 
0.17435 
0.09201 
0.09201 
0.14176 
0.14176 
0.17218 
0.17218 
0.12657 
0.12657 
0.08053 
0.08053 
0.12331 
0.12331 
0.04864 
0.04864 
0.04918 
0.04918 
0.11097 
0.11097 
0.10322 
0.10322 
0.13324 
0.13324 
0.10176 
0.10176 
0.03269 
0.03269 
0.17126 
0.17126 
0.11518 
0.11518 
0.14640 
0.14640 
0.20972 
0.20972 
0.11933 
0.11933 
0.11311 
0.11311 
0.08400 
0.08400 
0.14536 
0.14536 
0.20094 
0.20094 
0.13308 
0.13308 
0.09819 
0.09819 
0.17340 
0.17340 
0.13758 
0.13758 
0.18766 
0.18766 
0.13764 
0.13764 
0.07912 
0.07912 
0.13814 
0.13814 
0.11752 
0.11752 
0.14474 
0.14474 
0.14936 
0.14936 
0.19046 
0.19046 
0.16240 
0.16240 
0.09529 
0.09529 
0.14923 
0.14923 
0.10006 
0.10006 
0.09643 
0.09643 
0.13747 
0.13747 
0.09701 
0.09701 
0.10531 
0.10531 
0.13591 
0.13591 
0.09424 
0.09424 
0.07564 
0.07564 
0.16597 
0.16597 
0.12243 
0.12243 
0.07190 
0.07190 
0.17600 
0.17600 
0.11715 
0.11715 
0.17732 
0.17732 
0.11609 
0.11609 
0.10052 
0.10052 
0.03737 
0.03737 
0.13583 
0.13583 
0.06596 
0.06596 
0.12847 
0.12847 
0.09299 
0.09299 
0.14342 
0.14342 
0.13423 
0.13423 
0.04458 
0.04458 
0.13659 
0.13659 
0.11384 
0.11384 
0.14194 
0.14194 
0.13765 
0.13765 
0.11670 
0.11670 
0.09296 
0.09296 
0.21982 
0.21982 
0.11550 
0.11550 
0.12277 
0.12277 
0.08623 
0.08623 
0.20958 
0.20958 
0.11395 
0.11395 
0.18752 
0.18752 
0.13682 
0.13682 
0.16030 
0.16030 
0.15735 
0.15735 
0.09971 
0.09971 
0.16314 
0.16314 
0.12768 
0.12768 
0.18534 
0.18534 
0.07004 
0.07004 
0.07886 
0.07886 
0.17146 
0.17146 
0.11011 
0.11011 
0.21674 
0.21674 
0.13694 
0.13694 
0.24046 
0.24046 
0.08949 
0.08949 
0.14180 
0.14180 
0.14100 
0.14100 
0.04477 
0.04477 
0.07493 
0.07493 
0.07976 
0.07976 
0.14164 
0.14164 
0.15230 
0.15230 
0.14349 
0.14349 
0.12319 
0.12319 
0.14639 
0.14639 
0.04820 
0.04820 
0.09408 
0.09408 
0.06706 
0.06706 
0.04279 
0.04279 
0.11199 
0.11199 
0.16573 
0.16573 
0.07477 
0.07477 
0.05910 
0.05910 
0.15865 
0.15865 
0.10780 
0.10780 
0.14208 
0.14208 
0.10020 
0.10020 
0.17034 
0.17034 
0.13541 
0.13541 
0.08372 
0.08372 
0.26902 
0.26902 
0.09102 
0.09102 
0.08507 
0.08507 
0.05904 
0.05904 
0.15971 
0.15971 
0.18243 
0.18243 
0.06590 
0.06590 
0.07918 
0.07918 
0.17005 
0.17005 
0.11085 
0.11085 
0.17548 
0.17548 
0.25669 
0.25669 
0.13399 
0.13399 
0.06128 
0.06128 
0.06886 
0.06886 
0.09869 
0.09869 
0.14709 
0.14709 
0.10219 
0.10219 
0.10740 
0.10740 
0.08742 
0.08742 
0.12987 
0.12987 
0.20436 
0.20436 
0.18834 
0.18834 
0.07521 
0.07521 
0.06513 
0.06513 
0.15653 
0.15653 
0.12053 
0.12053 
0.05740 
0.05740 
0.12372 
0.12372 
0.19696 
0.19696 
0.05974 
0.05974 
0.22082 
0.22082 
0.04296 
0.04296 
0.12021 
0.12021 
0.04657 
0.04657 
0.18354 
0.18354 
0.21890 
0.21890 
0.14357 
0.14357 
0.18967 
0.18967 
0.09825 
0.09825 
0.12639 
0.12639 
0.15976 
0.15976 
0.15049 
0.15049 
0.12781 
0.12781 
0.06752 
0.06752 
0.15061 
0.15061 
0.17319 
0.17319 
0.12675 
0.12675 
0.17322 
0.17322 
0.10316 
0.10316 
0.05515 
0.05515 
0.19551 
0.19551 
0.18011 
0.18011 
0.19242 
0.19242 
0.10897 
0.10897 
0.17592 
0.17592 
0.15939 
0.15939 
0.16881 
0.16881 
0.15983 
0.15983 
0.12462 
0.12462 
0.14157 
0.14157 
0.10557 
0.10557 
0.15680 
0.15680 
0.21758 
0.21758 
0.15703 
0.15703 
0.12205 
0.12205 
0.11552 
0.11552 
0.11343 
0.11343 
0.09374 
0.09374 
0.12756 
0.12756 
0.15853 
0.15853 
0.11461 
0.11461 
0.16101 
0.16101 
0.10465 
0.10465 
0.10125 
0.10125 
0.06703 
0.06703 
0.07903 
0.07903 
0.10390 
0.10390 
0.13711 
0.13711 
0.05340 
0.05340 
0.17128 
0.17128 
0.05632 
0.05632 
0.09574 
0.09574 
0.13086 
0.13086 
0.13455 
0.13455 
0.13165 
0.13165 
0.14906 
0.14906 
0.09857 
0.09857 
0.28497 
0.28497 
0.19918 
0.19918 
0.16152 
0.16152 
0.12329 
0.12329 
0.06299 
0.06299 
0.06494 
0.06494 
0.09513 
0.09513 
0.14449 
0.14449 
0.15865 
0.15865 
0.03437 
0.03437 
0.03308 
0.03308 
0.12723 
0.12723 
0.11528 
0.11528 
0.09915 
0.09915 
0.11969 
0.11969 
0.13477 
0.13477 
0.15053 
0.15053 
0.17599 
0.17599 
0.19091 
0.19091 
0.14008 
0.14008 
0.11834 
0.11834 
0.16041 
0.16041 
0.04003 
0.04003 
0.13122 
0.13122 
0.17298 
0.17298 
0.09867 
0.09867 
0.06458 
0.06458 
0.22324 
0.22324 
0.20054 
0.20054 
0.13505 
0.13505 
0.10103 
0.10103 
0.07560 
0.07560 
0.20553 
0.20553 
0.19101 
0.19101 
0.11011 
0.11011 
0.14585 
0.14585 
0.09725 
0.09725 
0.10834 
0.10834 
0.06982 
0.06982 
0.06713 
0.06713 
0.09716 
0.09716 
0.24905 
0.24905 
0.14868 
0.14868 
0.16721 
0.16721 
0.23981 
0.23981 
0.21781 
0.21781 
0.18567 
0.18567 
0.09630 
0.09630 
0.19399 
0.19399 
0.08911 
0.08911 
0.18005 
0.18005 
0.10297 
0.10297 
0.17036 
0.17036 
0.22335 
0.22335 
0.12957 
0.12957 
0.03735 
0.03735 
0.10103 
0.10103 
0.16286 
0.16286 
0.12840 
0.12840 
0.06579 
0.06579 
0.11967 
0.11967 
0.17001 
0.17001 
0.13311 
0.13311 
0.18530 
0.18530 
0.13032 
0.13032 
0.13911 
0.13911 
0.10267 
0.10267 
0.13950 
0.13950 
0.10380 
0.10380 
0.16435 
0.16435 
0.13171 
0.13171 
0.09405 
0.09405 
0.09846 
0.09846 
0.15445 
0.15445 
0.11434 
0.11434 
0.12791 
0.12791 
0.07893 
0.07893 
0.11877 
0.11877 
0.12183 
0.12183 
0.07904 
0.07904 
0.17406 
0.17406 
0.11686 
0.11686 
0.19023 
0.19023 
0.13273 
0.13273 
0.12419 
0.12419 
0.15721 
0.15721 
0.14561 
0.14561 
0.06034 
0.06034 
0.07718 
0.07718 
0.15060 
0.15060 
0.12048 
0.12048 
0.14897 
0.14897 
0.07817 
0.07817 
0.12547 
0.12547 
0.14094 
0.14094 
0.17873 
0.17873 
0.10937 
0.10937 
0.08901 
0.08901 
0.13935 
0.13935 
0.14357 
0.14357 
0.04900 
0.04900 
0.12138 
0.12138 
0.07365 
0.07365 
0.13229 
0.13229 
0.08298 
0.08298 
0.09965 
0.09965 
0.13462 
0.13462 
0.07527 
0.07527 
0.08948 
0.08948 
0.12658 
0.12658 
0.09151 
0.09151 
0.24653 
0.24653 
0.21133 
0.21133 
0.04974 
0.04974 
0.10885 
0.10885 
0.18292 
0.18292 
0.14039 
0.14039 
0.08165 
0.08165 
0.14935 
0.14935 
0.12544 
0.12544 
0.08915 
0.08915 
0.20519 
0.20519 
0.19360 
0.19360 
0.13039 
0.13039 
0.08733 
0.08733 
0.08041 
0.08041 
0.14825 
0.14825 
0.11923 
0.11923 
0.12383 
0.12383 
0.12791 
0.12791 
0.14557 
0.14557 
0.06745 
0.06745 
0.19046 
0.19046 
0.13939 
0.13939 
0.16915 
0.16915 
0.11121 
0.11121 
0.06473 
0.06473 
0.23292 
0.23292 
0.09915 
0.09915 
0.08429 
0.08429 
0.09973 
0.09973 
0.11362 
0.11362 
0.10326 
0.10326 
0.04914 
0.04914 
0.11134 
0.11134 
0.09420 
0.09420 
0.11887 
0.11887 
0.17437 
0.17437 
0.13731 
0.13731 
0.09070 
0.09070 
0.22460 
0.22460 
0.09441 
0.09441 
0.10301 
0.10301 
0.14845 
0.14845 
0.13281 
0.13281 
0.10108 
0.10108 
0.16375 
0.16375 
0.09297 
0.09297 
0.14872 
0.14872 
0.08442 
0.08442 
0.26872 
0.26872 
0.11675 
0.11675 
0.14027 
0.14027 
0.09209 
0.09209 
0.10945 
0.10945 
0.07489 
0.07489 
0.14031 
0.14031 
0.13051 
0.13051 
0.08798 
0.08798 
0.06304 
0.06304 
0.09566 
0.09566 
0.12152 
0.12152 
0.12841 
0.12841 
0.12164 
0.12164 
0.17801 
0.17801 
0.11247 
0.11247 
0.07751 
0.07751 
0.07954 
0.07954 
0.08842 
0.08842 
0.08541 
0.08541 
0.07022 
0.07022 
0.11439 
0.11439 
0.10867 
0.10867 
0.14461 
0.14461 
0.07452 
0.07452 
0.15016 
0.15016 
0.17016 
0.17016 
0.10824 
0.10824 
0.05900 
0.05900 
0.09228 
0.09228 
0.16378 
0.16378 
0.14792 
0.14792 
0.16834 
0.16834 
0.15185 
0.15185 
0.14496 
0.14496 
0.18621 
0.18621 
0.16611 
0.16611 
0.15593 
0.15593 
0.15732 
0.15732 
0.16211 
0.16211 
0.10334 
0.10334 
0.09363 
0.09363 
0.08803 
0.08803 
0.09027 
0.09027 
0.14617 
0.14617 
0.18793 
0.18793 
0.13499 
0.13499 
0.12899 
0.12899 
0.16503 
0.16503 
0.12094 
0.12094 
0.17694 
0.17694 
0.12105 
0.12105 
0.14690 
0.14690 
0.08084 
0.08084 
0.12012 
0.12012 
0.13105 
0.13105 
0.13977 
0.13977 
0.07007 
0.07007 
0.15636 
0.15636 
0.12078 
0.12078 
0.17515 
0.17515 
0.14888 
0.14888 
0.09901 
0.09901 
0.17320 
0.17320 
0.07544 
0.07544 
0.10967 
0.10967 
0.07863 
0.07863 
0.13434 
0.13434 
0.09702 
0.09702 
0.11541 
0.11541 
SCALARS Umean_X double 1 
LOOKUP_TABLE default
0.07200 
0.07200 
0.00350 
0.00350 
-0.00500 
-0.00500 
0.06650 
0.06650 
0.04850 
0.04850 
0.04250 
0.04250 
0.01850 
0.01850 
0.04000 
0.04000 
0.07900 
0.07900 
0.01850 
0.01850 
-0.04250 
-0.04250 
0.04000 
0.04000 
0.06750 
0.06750 
-0.02150 
-0.02150 
0.04400 
0.04400 
0.01350 
0.01350 
0.04100 
0.04100 
0.08800 
0.08800 
0.02150 
0.02150 
0.03950 
0.03950 
-0.00350 
-0.00350 
0.07250 
0.07250 
-0.03700 
-0.03700 
0.06050 
0.06050 
-0.01150 
-0.01150 
0.05400 
0.05400 
0.02800 
0.02800 
0.01300 
0.01300 
0.05850 
0.05850 
0.06500 
0.06500 
0.10200 
0.10200 
-0.01800 
-0.01800 
0.03550 
0.03550 
0.04050 
0.04050 
0.04850 
0.04850 
0.07400 
0.07400 
0.03000 
0.03000 
0.01700 
0.01700 
0.06500 
0.06500 
0.08050 
0.08050 
0.06750 
0.06750 
0.08450 
0.08450 
0.00650 
0.00650 
0.00650 
0.00650 
-0.01350 
-0.01350 
0.03150 
0.03150 
0.07200 
0.07200 
0.08700 
0.08700 
0.04650 
0.04650 
0.03750 
0.03750 
-0.01250 
-0.01250 
-0.04500 
-0.04500 
-0.01350 
-0.01350 
0.07800 
0.07800 
0.00950 
0.00950 
-0.03350 
-0.03350 
0.09150 
0.09150 
0.08800 
0.08800 
0.06350 
0.06350 
0.05250 
0.05250 
0.04250 
0.04250 
0.10150 
0.10150 
0.07950 
0.07950 
0.04000 
0.04000 
0.07800 
0.07800 
0.03600 
0.03600 
0.01100 
0.01100 
0.10800 
0.10800 
0.00200 
0.00200 
-0.05200 
-0.05200 
-0.02950 
-0.02950 
0.03700 
0.03700 
0.02800 
0.02800 
0.01350 
0.01350 
0.05500 
0.05500 
0.03000 
0.03000 
-0.03650 
-0.03650 
0.07050 
0.07050 
0.08750 
0.08750 
-0.01800 
-0.01800 
0.07550 
0.07550 
0.08450 
0.08450 
0.08100 
0.08100 
0.02500 
0.02500 
0.04950 
0.04950 
0.07300 
0.07300 
0.05000 
0.05000 
0.11300 
0.11300 
0.01100 
0.01100 
-0.04150 
-0.04150 
0.03350 
0.03350 
0.04350 
0.04350 
0.01900 
0.01900 
0.03750 
0.03750 
-0.00150 
-0.00150 
-0.00700 
-0.00700 
0.09450 
0.09450 
0.07400 
0.07400 
-0.02800 
-0.02800 
0.07000 
0.07000 
0.01250 
0.01250 
0.10900 
0.10900 
0.07600 
0.07600 
0.01800 
0.01800 
0.07150 
0.07150 
0.03050 
0.03050 
0.09450 
0.09450 
0.02850 
0.02850 
0.07750 
0.07750 
0.06550 
0.06550 
0.01450 
0.01450 
0.08900 
0.08900 
0.02900 
0.02900 
0.01300 
0.01300 
0.02450 
0.02450 
-0.01250 
-0.01250 
0.04400 
0.04400 
0.06650 
0.06650 
0.04700 
0.04700 
0.09900 
0.09900 
-0.02450 
-0.02450 
0.05900 
0.05900 
0.09750 
0.09750 
0.02250 
0.02250 
0.05600 
0.05600 
0.02100 
0.02100 
-0.01950 
-0.01950 
0.05200 
0.05200 
-0.02100 
-0.02100 
0.06850 
0.06850 
0.05400 
0.05400 
0.02600 
0.02600 
0.02750 
0.02750 
0.03650 
0.03650 
0.11750 
0.11750 
0.02150 
0.02150 
0.07550 
0.07550 
0.00300 
0.00300 
0.04450 
0.04450 
0.02750 
0.02750 
0.08300 
0.08300 
-0.01450 
-0.01450 
0.08350 
0.08350 
0.05600 
0.05600 
0.04300 
0.04300 
0.10950 
0.10950 
0.00050 
0.00050 
0.05550 
0.05550 
0.07050 
0.07050 
-0.02100 
-0.02100 
0.00750 
0.00750 
0.00400 
0.00400 
0.07000 
0.07000 
0.15800 
0.15800 
0.04700 
0.04700 
0.03750 
0.03750 
0.01450 
0.01450 
0.08050 
0.08050 
0.05850 
0.05850 
0.05400 
0.05400 
0.02350 
0.02350 
0.08350 
0.08350 
0.07200 
0.07200 
-0.01150 
-0.01150 
0.04700 
0.04700 
0.07200 
0.07200 
0.10600 
0.10600 
0.02300 
0.02300 
-0.03100 
-0.03100 
0.02850 
0.02850 
0.03050 
0.03050 
0.01200 
0.01200 
-0.03850 
-0.03850 
0.12550 
0.12550 
-0.06450 
-0.06450 
0.05950 
0.05950 
0.00050 
0.00050 
0.04350 
0.04350 
-0.07350 
-0.07350 
0.00500 
0.00500 
0.10400 
0.10400 
-0.00650 
-0.00650 
0.05700 
0.05700 
0.04550 
0.04550 
-0.00500 
-0.00500 
0.01150 
0.01150 
0.02950 
0.02950 
0.02550 
0.02550 
0.00250 
0.00250 
0.03050 
0.03050 
-0.02700 
-0.02700 
0.02550 
0.02550 
0.03050 
0.03050 
0.07050 
0.07050 
0.05400 
0.05400 
0.09450 
0.09450 
0.02100 
0.02100 
0.09800 
0.09800 
0.01000 
0.01000 
0.03200 
0.03200 
0.01300 
0.01300 
-0.00050 
-0.00050 
0.06850 
0.06850 
0.05150 
0.05150 
0.10150 
0.10150 
-0.05400 
-0.05400 
0.05150 
0.05150 
0.01300 
0.01300 
0.09950 
0.09950 
0.04800 
0.04800 
0.07150 
0.07150 
0.00150 
0.00150 
0.04200 
0.04200 
0.01600 
0.01600 
0.02150 
0.02150 
0.09350 
0.09350 
0.08150 
0.08150 
0.10000 
0.10000 
0.01300 
0.01300 
-0.01400 
-0.01400 
0.04400 
0.04400 
-0.03550 
-0.03550 
0.03900 
0.03900 
0.06100 
0.06100 
-0.00950 
-0.00950 
0.02800 
0.02800 
-0.03050 
-0.03050 
0.01300 
0.01300 
-0.00400 
-0.00400 
0.09650 
0.09650 
0.01900 
0.01900 
-0.00200 
-0.00200 
-0.03200 
-0.03200 
0.06700 
0.06700 
-0.01800 
-0.01800 
0.03550 
0.03550 
0.13450 
0.13450 
0.08350 
0.08350 
0.02200 
0.02200 
0.06650 
0.06650 
0.04050 
0.04050 
0.02600 
0.02600 
0.04300 
0.04300 
0.07300 
0.07300 
0.00150 
0.00150 
0.07900 
0.07900 
0.02750 
0.02750 
0.03900 
0.03900 
0.05350 
0.05350 
0.00550 
0.00550 
0.04400 
0.04400 
-0.04450 
-0.04450 
0.07550 
0.07550 
0.12450 
0.12450 
0.02350 
0.02350 
0.08250 
0.08250 
0.08350 
0.08350 
0.00650 
0.00650 
0.08850 
0.08850 
0.03700 
0.03700 
0.00600 
0.00600 
0.01000 
0.01000 
0.05850 
0.05850 
0.04500 
0.04500 
0.06100 
0.06100 
0.08750 
0.08750 
-0.02800 
-0.02800 
0.08100 
0.08100 
0.06450 
0.06450 
-0.01600 
-0.01600 
0.04250 
0.04250 
0.00750 
0.00750 
0.06150 
0.06150 
0.09750 
0.09750 
0.00150 
0.00150 
0.02100 
0.02100 
0.05200 
0.05200 
-0.03300 
-0.03300 
0.04500 
0.04500 
0.02500 
0.02500 
0.10200 
0.10200 
0.03850 
0.03850 
0.01300 
0.01300 
-0.01700 
-0.01700 
0.02150 
0.02150 
0.04250 
0.04250 
0.02550 
0.02550 
0.05550 
0.05550 
0.13700 
0.13700 
0.12700 
0.12700 
0.05250 
0.05250 
0.11850 
0.11850 
0.00250 
0.00250 
0.00800 
0.00800 
-0.01050 
-0.01050 
0.07800 
0.07800 
0.09650 
0.09650 
0.00400 
0.00400 
0.02200 
0.02200 
0.09800 
0.09800 
0.02600 
0.02600 
0.03050 
0.03050 
0.10250 
0.10250 
0.04950 
0.04950 
0.06150 
0.06150 
0.12500 
0.12500 
0.00500 
0.00500 
0.05400 
0.05400 
0.05700 
0.05700 
0.06450 
0.06450 
-0.01450 
-0.01450 
-0.01100 
-0.01100 
0.03000 
0.03000 
0.06450 
0.06450 
0.00650 
0.00650 
0.11450 
0.11450 
0.10300 
0.10300 
0.07800 
0.07800 
0.02100 
0.02100 
0.02800 
0.02800 
0.07600 
0.07600 
0.08200 
0.08200 
0.05750 
0.05750 
0.01400 
0.01400 
0.04000 
0.04000 
0.01250 
0.01250 
0.05500 
0.05500 
0.01100 
0.01100 
-0.01800 
-0.01800 
0.08550 
0.08550 
0.12000 
0.12000 
0.06000 
0.06000 
0.06400 
0.06400 
0.04550 
0.04550 
0.04350 
0.04350 
0.03150 
0.03150 
0.03400 
0.03400 
0.08400 
0.08400 
0.09300 
0.09300 
0.05150 
0.05150 
0.09150 
0.09150 
0.10600 
0.10600 
0.00400 
0.00400 
-0.02850 
-0.02850 
-0.05000 
-0.05000 
0.00950 
0.00950 
0.04600 
0.04600 
0.05750 
0.05750 
0.03100 
0.03100 
0.10650 
0.10650 
0.06150 
0.06150 
0.12400 
0.12400 
0.09700 
0.09700 
0.11800 
0.11800 
-0.00750 
-0.00750 
-0.04450 
-0.04450 
0.03450 
0.03450 
0.07050 
0.07050 
0.04150 
0.04150 
-0.00600 
-0.00600 
0.02550 
0.02550 
0.07500 
0.07500 
0.05200 
0.05200 
0.06300 
0.06300 
-0.01250 
-0.01250 
0.01250 
0.01250 
-0.03950 
-0.03950 
0.05300 
0.05300 
0.10600 
0.10600 
0.08500 
0.08500 
0.04700 
0.04700 
0.03650 
0.03650 
0.11150 
0.11150 
0.10250 
0.10250 
0.07400 
0.07400 
-0.01650 
-0.01650 
-0.03200 
-0.03200 
0.06750 
0.06750 
0.09350 
0.09350 
0.06750 
0.06750 
0.00200 
0.00200 
0.09400 
0.09400 
-0.01200 
-0.01200 
0.10200 
0.10200 
0.02150 
0.02150 
0.08450 
0.08450 
-0.01350 
-0.01350 
-0.00750 
-0.00750 
0.02000 
0.02000 
0.00650 
0.00650 
0.02650 
0.02650 
0.12300 
0.12300 
-0.00200 
-0.00200 
-0.05650 
-0.05650 
0.11700 
0.11700 
0.03650 
0.03650 
-0.00550 
-0.00550 
-0.01900 
-0.01900 
0.03000 
0.03000 
0.17200 
0.17200 
0.09500 
0.09500 
-0.01300 
-0.01300 
-0.00650 
-0.00650 
0.01600 
0.01600 
0.01300 
0.01300 
-0.01300 
-0.01300 
0.01750 
0.01750 
0.07350 
0.07350 
0.06700 
0.06700 
0.05450 
0.05450 
0.01500 
0.01500 
0.08050 
0.08050 
0.06800 
0.06800 
0.07550 
0.07550 
0.06800 
0.06800 
0.05050 
0.05050 
0.10450 
0.10450 
-0.03300 
-0.03300 
0.08400 
0.08400 
0.05750 
0.05750 
0.10350 
0.10350 
0.08700 
0.08700 
0.01600 
0.01600 
-0.00150 
-0.00150 
-0.01900 
-0.01900 
0.15150 
0.15150 
0.01000 
0.01000 
0.01050 
0.01050 
0.04800 
0.04800 
0.09750 
0.09750 
-0.01600 
-0.01600 
0.03850 
0.03850 
0.02550 
0.02550 
-0.01700 
-0.01700 
0.04250 
0.04250 
0.10900 
0.10900 
0.06700 
0.06700 
0.03400 
0.03400 
0.02300 
0.02300 
0.02700 
0.02700 
0.05050 
0.05050 
0.12850 
0.12850 
0.00200 
0.00200 
-0.00050 
-0.00050 
0.10400 
0.10400 
0.08800 
0.08800 
-0.05250 
-0.05250 
0.04500 
0.04500 
0.12450 
0.12450 
-0.01500 
-0.01500 
0.10650 
0.10650 
0.07900 
0.07900 
0.06900 
0.06900 
0.03350 
0.03350 
0.05650 
0.05650 
0.09650 
0.09650 
0.03500 
0.03500 
0.02300 
0.02300 
0.05350 
0.05350 
0.01000 
0.01000 
0.03450 
0.03450 
0.00550 
0.00550 
0.01250 
0.01250 
-0.02900 
-0.02900 
0.03250 
0.03250 
0.04800 
0.04800 
0.02350 
0.02350 
-0.01650 
-0.01650 
0.05550 
0.05550 
0.05700 
0.05700 
0.07350 
0.07350 
0.01050 
0.01050 
0.06500 
0.06500 
-0.04950 
-0.04950 
0.12100 
0.12100 
0.08750 
0.08750 
0.02950 
0.02950 
0.03700 
0.03700 
0.11000 
0.11000 
0.07500 
0.07500 
0.06350 
0.06350 
0.08750 
0.08750 
-0.02150 
-0.02150 
0.10550 
0.10550 
-0.04550 
-0.04550 
0.11450 
0.11450 
-0.04050 
-0.04050 
0.14200 
0.14200 
0.04550 
0.04550 
0.02950 
0.02950 
-0.06550 
-0.06550 
0.07600 
0.07600 
0.00500 
0.00500 
0.03650 
0.03650 
0.00700 
0.00700 
0.00350 
0.00350 
0.07150 
0.07150 
0.05500 
0.05500 
0.08850 
0.08850 
-0.05600 
-0.05600 
0.04350 
0.04350 
0.06750 
0.06750 
0.07050 
0.07050 
0.08600 
0.08600 
0.10050 
0.10050 
0.01700 
0.01700 
0.12350 
0.12350 
0.05950 
0.05950 
0.08050 
0.08050 
0.04950 
0.04950 
0.08850 
0.08850 
0.06150 
0.06150 
0.04050 
0.04050 
-0.08650 
-0.08650 
-0.00300 
-0.00300 
0.09350 
0.09350 
0.03800 
0.03800 
0.08550 
0.08550 
SCALARS Umean_Y double 1 
LOOKUP_TABLE default
0.07800 
0.07800 
0.05150 
0.05150 
0.13750 
0.13750 
0.14000 
0.14000 
0.08050 
0.08050 
0.05600 
0.05600 
0.07500 
0.07500 
0.01650 
0.01650 
0.05700 
0.05700 
0.12150 
0.12150 
0.08000 
0.08000 
0.01750 
0.01750 
0.09400 
0.09400 
0.10550 
0.10550 
0.06150 
0.06150 
0.10650 
0.10650 
0.09900 
0.09900 
0.10100 
0.10100 
0.05150 
0.05150 
0.09950 
0.09950 
0.07750 
0.07750 
0.09700 
0.09700 
0.14000 
0.14000 
0.08250 
0.08250 
0.20200 
0.20200 
0.14750 
0.14750 
0.13200 
0.13200 
0.09650 
0.09650 
0.08750 
0.08750 
0.10350 
0.10350 
0.12050 
0.12050 
0.10000 
0.10000 
0.09000 
0.09000 
0.10300 
0.10300 
0.12350 
0.12350 
0.06150 
0.06150 
0.15550 
0.15550 
0.10150 
0.10150 
0.13750 
0.13750 
0.12050 
0.12050 
0.04400 
0.04400 
0.14400 
0.14400 
0.16150 
0.16150 
0.12450 
0.12450 
0.08200 
0.08200 
0.12050 
0.12050 
0.11900 
0.11900 
0.03650 
0.03650 
0.11500 
0.11500 
0.12300 
0.12300 
0.05250 
0.05250 
0.11650 
0.11650 
0.09150 
0.09150 
0.12950 
0.12950 
0.10950 
0.10950 
0.13050 
0.13050 