# vtk DataFile Version 2.1 
Trajects from timestep 82 with color option 
ASCII 
 
DATASET POLYDATA POINTS 1038 float 
10.329 3.013 -72.755 
10.398 3.145 -72.949 
-5.681 7.191 -71.517 
-5.631 7.285 -71.510 
5.283 -0.782 -69.273 
5.355 -0.469 -69.391 
-7.488 -1.919 -70.812 
-7.443 -1.786 -70.756 
-2.754 6.616 -69.735 
-2.628 6.768 -69.758 
2.553 5.677 -68.171 
2.475 5.892 -68.208 
3.473 5.525 -71.069 
3.418 5.787 -71.232 
-4.775 5.696 -69.652 
-4.555 5.834 -69.592 
6.082 5.920 -71.704 
6.064 6.071 -71.736 
3.049 7.933 -70.310 
3.136 8.209 -70.346 
-1.559 1.805 -69.651 
-1.478 2.030 -69.567 
-2.799 -0.218 -70.931 
-2.678 -0.040 -71.119 
0.629 7.487 -66.523 
0.680 7.863 -66.539 
7.657 2.627 -68.885 
7.686 2.886 -69.081 
-8.172 3.186 -73.954 
-8.075 3.255 -73.919 
-9.696 -7.543 -67.333 
-9.814 -7.183 -67.515 
6.032 5.402 -72.176 
6.039 5.590 -72.322 
2.310 -2.628 -74.028 
2.267 -2.416 -73.995 
7.885 -0.412 -73.460 
7.851 -0.188 -73.523 
-5.135 0.035 -69.944 
-5.119 0.310 -70.052 
-9.073 3.293 -72.147 
-8.946 3.360 -72.217 
-8.139 7.878 -66.942 
-7.888 8.115 -66.943 
-7.856 -6.294 -70.893 
-7.777 -5.979 -70.966 
-12.746 0.780 -70.837 
-12.724 0.896 -70.849 
-0.924 5.787 -64.089 
-0.775 6.115 -63.964 
3.679 7.758 -66.080 
3.793 8.060 -66.136 
-1.275 -11.417 -71.165 
-1.213 -11.282 -71.300 
5.392 10.059 -65.667 
5.493 10.299 -65.638 
1.203 -3.919 -71.746 
1.207 -3.677 -71.861 
-2.351 6.688 -66.718 
-2.317 6.919 -66.544 
-10.266 -10.937 -68.138 
-10.355 -10.648 -68.251 
2.075 3.338 -69.330 
2.095 3.763 -69.373 
4.062 10.068 -67.031 
4.075 10.283 -67.090 
-12.460 12.139 -73.308 
-12.370 12.150 -73.374 
-7.121 5.460 -67.352 
-6.990 5.665 -67.289 
5.510 -7.233 -64.409 
5.454 -6.887 -64.548 
0.094 12.836 -65.231 
0.118 13.053 -65.195 
-4.714 -8.364 -71.488 
-4.682 -8.100 -71.422 
8.922 8.325 -70.869 
8.927 8.425 -71.056 
-4.078 -4.225 -69.804 
-3.896 -4.011 -69.879 
-11.473 10.683 -71.000 
-11.301 10.820 -70.981 
-2.173 6.117 -63.064 
-2.064 6.409 -62.899 
8.979 0.083 -71.917 
8.998 0.407 -71.969 
4.645 6.238 -67.851 
4.750 6.493 -67.838 
0.373 1.190 -65.512 
0.482 1.501 -65.615 
4.335 10.855 -68.248 
4.274 11.062 -68.244 
-8.815 2.903 -67.729 
-8.634 3.018 -67.542 
7.214 9.886 -64.023 
7.272 10.195 -63.999 
-3.633 4.001 -66.896 
-3.494 4.232 -66.805 
-0.379 9.451 -62.461 
-0.228 9.697 -62.405 
-5.379 1.411 -67.434 
-5.245 1.753 -67.370 
-5.741 7.863 -69.011 
-5.724 8.066 -69.072 
-6.536 6.481 -72.630 
-6.394 6.472 -72.730 
-5.211 -0.257 -75.539 
-5.167 -0.117 -75.566 
1.974 4.889 -70.679 
1.951 5.225 -70.830 
-7.039 4.237 -66.965 
-6.773 4.510 -66.601 
4.585 5.099 -68.528 
4.634 5.355 -68.606 
-0.504 -0.574 -70.323 
-0.491 -0.374 -70.171 
-8.166 10.002 -64.262 
-8.150 10.270 -64.257 
-0.338 11.275 -64.072 
-0.218 11.477 -64.126 
6.309 -11.137 -72.747 
6.552 -11.042 -73.026 
2.620 7.967 -61.675 
2.732 8.262 -61.571 
1.107 7.521 -75.212 
0.995 7.588 -75.297 
9.872 -3.215 -67.214 
9.942 -3.135 -67.272 
-4.712 3.643 -62.631 
-4.701 3.824 -62.534 
7.205 1.140 -69.141 
7.215 1.417 -69.324 
2.557 6.342 -73.022 
2.678 6.575 -73.111 
-10.590 -2.641 -69.547 
-10.581 -2.518 -69.498 
4.031 -2.353 -65.848 
4.216 -2.096 -66.024 
-8.179 0.179 -66.364 
-8.042 0.412 -66.357 
-1.879 0.287 -64.845 
-1.750 0.535 -64.919 
2.153 -4.983 -64.965 
2.255 -4.858 -65.239 
9.898 -0.169 -67.894 
10.026 0.020 -68.109 
-1.113 -10.815 -65.667 
-0.936 -10.613 -65.790 
-3.633 10.934 -67.872 
-3.594 11.098 -67.899 
-11.066 1.113 -64.174 
-11.116 1.276 -64.395 
14.352 4.878 -65.996 
14.578 5.009 -66.034 
4.975 -6.125 -76.613 
5.021 -6.013 -76.828 
15.276 11.677 -73.624 
15.232 11.749 -73.783 
8.805 -11.246 -68.627 
8.898 -11.098 -68.495 
6.862 1.850 -68.728 
6.846 2.177 -69.024 
5.785 -6.687 -68.259 
6.022 -6.538 -68.346 
6.065 -9.918 -67.189 
6.233 -9.645 -67.310 
0.456 -11.235 -71.267 
0.657 -11.090 -71.470 
-15.862 -2.730 -72.662 
-15.978 -2.568 -72.761 
0.409 -5.400 -65.012 
0.553 -5.221 -65.148 
-9.716 10.766 -65.867 
-9.694 10.875 -65.851 
-6.278 1.826 -66.701 
-6.184 2.158 -66.561 
0.880 -4.585 -64.406 
1.023 -4.429 -64.588 
10.609 2.038 -71.548 
10.804 2.230 -71.777 
3.384 -4.291 -67.894 
3.570 -4.079 -68.194 
13.690 3.133 -69.021 
13.778 3.175 -68.993 
11.616 1.633 -66.747 
11.650 1.828 -66.886 
1.977 5.227 -74.795 
2.086 5.380 -74.908 
-11.043 2.795 -72.237 
-10.990 2.903 -72.311 
-9.922 -2.669 -63.685 
-9.802 -2.514 -63.913 
-9.964 -2.856 -72.129 
-9.953 -2.611 -72.068 
11.027 -0.634 -66.082 
11.171 -0.396 -66.346 
-6.151 -0.649 -62.634 
-6.141 -0.504 -62.760 
-5.943 2.858 -61.748 
-5.929 2.985 -61.718 
-8.417 -3.975 -64.644 
-8.323 -3.783 -64.818 
-10.394 7.989 -65.796 
-10.276 8.209 -65.758 
2.612 -7.696 -62.827 
2.773 -7.506 -63.078 
-1.959 -11.154 -71.187 
-1.960 -10.960 -71.251 
-1.452 1.478 -64.256 
-1.270 1.599 -64.164 
2.617 2.739 -65.658 
2.887 3.012 -65.601 
-1.500 -6.677 -70.827 
-1.349 -6.493 -71.004 
-1.596 1.437 -75.220 
-1.498 1.532 -75.232 
-0.956 -8.364 -65.299 
-0.825 -8.194 -65.441 
12.243 6.975 -68.079 
12.276 7.052 -68.101 
7.013 -5.998 -68.189 
7.219 -5.885 -68.378 
2.160 7.251 -70.505 
2.264 7.554 -70.499 
3.555 -0.436 -69.573 
3.571 -0.205 -69.708 
-3.973 -1.461 -74.414 
-3.956 -1.315 -74.406 
-0.317 2.917 -71.829 
-0.148 3.156 -71.823 
-1.772 -3.617 -67.688 
-1.624 -3.414 -67.720 
2.943 -8.753 -64.166 
2.991 -8.545 -64.510 
-10.124 7.811 -68.938 
-9.964 7.827 -68.941 
-1.348 -2.677 -73.272 
-1.305 -2.463 -73.334 
-4.895 -8.099 -68.366 
-4.876 -7.928 -68.389 
-2.222 10.437 -66.140 
-2.166 10.753 -66.189 
8.631 8.515 -66.818 
8.697 8.694 -66.823 
-12.913 -6.699 -72.742 
-12.780 -6.547 -72.825 
4.115 5.278 -63.499 
4.278 5.492 -63.778 
9.363 8.130 -68.115 
9.456 8.256 -68.141 
6.897 -6.088 -64.684 
6.998 -5.942 -64.744 
-4.588 7.836 -73.206 
-4.581 7.888 -73.239 
-8.106 -6.465 -63.692 
-8.036 -6.197 -63.758 
-8.720 -7.681 -70.336 
-8.572 -7.375 -70.449 
15.939 7.284 -68.611 
15.938 7.427 -68.658 
5.423 4.700 -63.954 
5.596 5.023 -64.076 
-15.581 8.041 -74.502 
-15.580 8.176 -74.516 
5.688 9.103 -71.754 
5.615 9.172 -71.940 
1.544 -7.650 -65.524 
1.643 -7.413 -65.847 
7.933 -7.395 -67.073 
8.213 -7.445 -67.124 
-3.946 5.803 -66.331 
-3.886 6.001 -66.308 
-13.284 -1.122 -67.562 
-13.297 -0.809 -67.628 
6.813 7.042 -67.078 
6.829 7.186 -67.233 
-2.417 6.292 -74.684 
-2.426 6.375 -74.796 
6.958 -2.714 -67.188 
7.119 -2.517 -67.521 
-7.044 -4.550 -67.821 
-6.863 -4.467 -67.876 
1.714 -3.416 -63.283 
1.840 -3.203 -63.517 
12.472 -2.345 -72.271 
12.482 -2.236 -72.370 
0.546 -1.151 -72.850 
0.549 -1.008 -72.794 
-4.949 10.541 -64.240 
-4.893 10.748 -64.270 
2.236 5.438 -65.748 
2.323 5.713 -65.741 
1.108 3.364 -70.886 
1.091 3.559 -70.800 
-3.188 -6.955 -68.370 
-2.983 -6.750 -68.505 
-6.811 7.646 -61.696 
-6.750 7.889 -61.806 
-9.336 12.740 -64.066 
-9.375 13.059 -64.234 
-10.326 -3.842 -66.621 
-10.176 -3.681 -66.835 
-8.793 11.582 -64.013 
-8.827 11.855 -63.990 
11.234 -3.113 -65.285 
11.288 -2.993 -65.291 
-8.057 9.358 -66.689 
-7.944 9.536 -66.710 
15.174 0.024 -71.911 
15.277 0.036 -72.020 
-6.038 10.575 -63.999 
-6.116 10.786 -63.993 
-3.249 -1.202 -66.071 
-3.155 -0.942 -65.974 
-2.233 9.042 -73.613 
-2.298 9.112 -73.676 
1.174 -10.546 -70.231 
1.381 -10.406 -70.537 
1.683 2.729 -63.695 
1.782 3.024 -63.792 
-12.674 7.816 -66.471 
-12.639 7.896 -66.447 
-1.408 6.027 -69.103 
-1.371 6.187 -69.040 
8.349 -4.575 -69.024 
8.453 -4.432 -69.255 
-4.947 -1.148 -74.400 
-4.877 -0.976 -74.341 
10.299 9.642 -67.682 
10.243 9.746 -67.716 
13.638 5.330 -75.395 
13.654 5.380 -75.582 
-9.128 -7.217 -67.890 
-9.165 -6.945 -67.952 
-4.698 8.113 -70.061 
-4.701 8.305 -70.087 
0.233 -8.616 -66.504 
0.371 -8.470 -66.701 
6.503 8.813 -66.709 
6.571 9.034 -66.709 
-13.919 -2.293 -68.725 
-13.899 -2.012 -68.743 
-8.492 8.041 -73.745 
-8.480 8.144 -73.746 
11.671 -8.789 -67.038 
11.820 -8.590 -67.043 
15.020 10.498 -74.389 
15.009 10.585 -74.591 
14.821 3.017 -66.615 
14.872 3.179 -66.560 
-13.834 10.519 -67.732 
-13.777 10.544 -67.706 
-1.694 1.690 -67.627 
-1.624 1.952 -67.415 
-6.173 5.370 -75.837 
-6.107 5.378 -75.788 
-2.849 11.797 -61.657 
-2.870 12.006 -61.876 
-3.538 -3.239 -62.202 
-3.422 -3.115 -62.381 
-15.311 5.989 -70.506 
-15.279 6.014 -70.514 
-15.749 4.082 -72.161 
-15.493 4.373 -72.111 
-1.447 -6.804 -69.270 
-1.284 -6.553 -69.459 
4.261 -10.913 -68.636 
4.462 -10.909 -68.907 
5.444 7.031 -76.266 
5.382 6.998 -76.396 
-5.431 -7.257 -71.293 
-5.338 -6.931 -71.124 
-3.931 -6.834 -70.127 
-3.623 -6.618 -70.240 
3.159 -12.499 -70.519 
3.356 -12.368 -70.739 
10.729 6.461 -68.255 
10.856 6.436 -68.245 
14.631 -9.873 -64.904 
14.871 -9.852 -65.190 
-9.899 11.458 -63.866 
-9.807 11.593 -63.898 
-14.046 -11.448 -70.826 
-14.024 -11.210 -70.845 
-12.913 12.852 -66.678 
-12.836 12.887 -66.658 
7.261 -8.036 -66.002 
7.273 -8.088 -66.144 
-1.310 0.463 -69.517 
-1.184 0.685 -69.409 
-2.622 -4.553 -60.837 
-2.550 -4.420 -60.910 
-6.100 6.479 -70.708 
-5.794 6.628 -70.800 
-5.071 -12.093 -66.615 
-4.924 -12.021 -66.776 
-6.222 -6.316 -75.940 
-6.205 -6.195 -76.017 
11.547 -0.210 -73.720 
11.442 -0.219 -73.736 
-2.568 10.729 -75.502 
-2.712 10.837 -75.612 
1.332 0.029 -75.911 
1.325 0.145 -76.019 
-9.634 3.757 -71.988 
-9.518 3.818 -72.025 
4.434 -2.441 -63.499 
4.625 -2.239 -63.686 
-1.434 -5.998 -77.544 
-1.487 -5.980 -77.639 
-0.401 -4.508 -63.990 
-0.255 -4.265 -63.983 
1.755 5.831 -61.826 
1.924 6.054 -61.896 
-0.662 11.422 -73.579 
-0.777 11.503 -73.615 
8.096 -5.903 -63.455 
8.117 -5.712 -63.412 
-13.714 11.121 -74.564 
-13.702 11.228 -74.607 
-4.541 -4.957 -71.117 
-4.449 -4.787 -71.358 
-2.586 0.114 -64.707 
-2.468 0.404 -64.765 
6.698 3.244 -63.363 
6.921 3.523 -63.428 
-16.083 -1.244 -72.399 
-15.877 -1.224 -72.506 
-10.301 -1.610 -62.385 
-10.266 -1.469 -62.447 
-14.145 9.244 -72.462 
-14.101 9.345 -72.486 
-7.600 11.434 -71.350 
-7.559 11.637 -71.410 
-14.726 8.267 -69.801 
-14.477 8.252 -69.788 
-5.770 1.291 -71.498 
-5.643 1.324 -71.499 
5.187 11.087 -72.637 
4.995 11.210 -72.856 
1.304 -8.107 -65.393 
1.384 -7.851 -65.634 
[...]
POINT_DATA 1038 
SCALARS Umean double 1 
LOOKUP_TABLE default
0.12229 
0.12229 
0.05335 
0.05335 
0.17108 
0.17108 
0.07558 
0.07558 
0.09938 
0.09938 
0.11584 
0.11584 
0.15671 
0.15671 
0.13327 
0.13327 
0.07770 
0.07770 
0.14581 
0.14581 
0.12673 
0.12673 
0.14289 
0.14289 
0.18989 
0.18989 
0.16305 
0.16305 
0.06204 
0.06204 
0.21015 
0.21015 
0.11907 
0.11907 
0.10941 
0.10941 
0.11758 
0.11758 
0.14794 
0.14794 
0.07987 
0.07987 
0.17261 
0.17261 
0.16643 
0.16643 
0.05934 
0.05934 
0.19066 
0.19066 
0.16381 
0.16381 
0.10037 
0.10037 
0.13100 
0.13100 
0.13398 
0.13398 
0.14560 
0.14560 
0.16141 
0.16141 
0.21382 
0.21382 
0.11166 
0.11166 
0.05607 
0.05607 
0.12565 
0.12565 
0.18853 
0.18853 
0.11064 
0.11064 
0.13700 
0.13700 
0.10606 
0.10606 
0.14538 
0.14538 
0.11036 
0.11036 
0.17633 
0.17633 
0.16435 
0.16435 
0.13804 
0.13804 
0.17263 
0.17263 
0.10792 
0.10792 
0.14226 
0.14226 
0.15766 
0.15766 
0.14227 
0.14227 
0.14701 
0.14701 
0.18642 
0.18642 
0.10632 
0.10632 
0.08696 
0.08696 
0.07461 
0.07461 
0.18454 
0.18454 
0.26352 
0.26352 
0.13603 
0.13603 
0.12577 
0.12577 
0.13426 
0.13426 
0.12054 
0.12054 
0.19099 
0.19099 
0.16612 
0.16612 
0.07787 
0.07787 
0.06055 
0.06055 
0.10282 
0.10282 
0.16607 
0.16607 
0.13861 
0.13861 
0.06635 
0.06635 
0.18114 
0.18114 
0.13519 
0.13519 
0.14459 
0.14459 
0.15899 
0.15899 
0.15679 
0.15679 
0.14770 
0.14770 
0.08536 
0.08536 
0.13956 
0.13956 
0.13199 
0.13199 
0.12337 
0.12337 
0.09000 
0.09000 
0.10952 
0.10952 
0.22068 
0.22068 
0.14658 
0.14658 
0.17131 
0.17131 
0.16018 
0.16018 
0.11124 
0.11124 
0.13349 
0.13349 
0.05617 
0.05617 
0.18619 
0.18619 
0.13956 
0.13956 
0.17842 
0.17842 
0.20588 
0.20588 
0.05072 
0.05072 
0.12094 
0.12094 
0.10961 
0.10961 
0.07062 
0.07062 
0.15034 
0.15034 
0.12636 
0.12636 
0.19175 
0.19175 
0.09618 
0.09618 
0.06562 
0.06562 
0.13782 
0.13782 
0.12626 
0.12626 
0.17679 
0.17679 
0.10214 
0.10214 
0.11856 
0.11856 
0.19409 
0.19409 
0.14831 
0.14831 
0.06851 
0.06851 
0.12867 
0.12867 
0.04331 
0.04331 
0.15077 
0.15077 
0.16020 
0.16020 
0.13402 
0.13402 
0.07360 
0.07360 
0.14639 
0.14639 
0.12663 
0.12663 
0.20243 
0.20243 
0.08041 
0.08041 
0.11346 
0.11346 
0.08679 
0.08679 
0.16232 
0.16232 
0.09542 
0.09542 
0.10918 
0.10918 
0.19378 
0.19378 
0.07937 
0.07937 
0.09370 
0.09370 
0.03099 
0.03099 
0.14237 
0.14237 
0.17910 
0.17910 
0.07526 
0.07526 
0.19309 
0.19309 
0.06786 
0.06786 
0.10570 
0.10570 
0.20634 
0.20634 
0.14448 
0.14448 
0.10408 
0.10408 
0.16007 
0.16007 
0.10609 
0.10609 
0.06985 
0.06985 
0.20953 
0.20953 
0.10329 
0.10329 
0.17029 
0.17029 
0.07379 
0.07379 
0.07680 
0.07680 
0.10826 
0.10826 
0.14426 
0.14426 
0.10690 
0.10690 
0.15990 
0.15990 
0.13681 
0.13681 
0.18132 
0.18132 
0.15347 
0.15347 
0.13803 
0.13803 
0.06586 
0.06586 
0.10594 
0.10594 
0.07522 
0.07522 
0.11252 
0.11252 
0.14650 
0.14650 
0.05721 
0.05721 
0.19754 
0.19754 
0.16297 
0.16297 
0.04528 
0.04528 
0.08795 
0.08795 
0.14545 
0.14545 
0.09742 
0.09742 
0.06146 
0.06146 
0.09711 
0.09711 
0.14071 
0.14071 
0.09689 
0.09689 
0.14068 
0.14068 
0.11561 
0.11561 
0.14114 
0.14114 
0.05185 
0.05185 
0.12433 
0.12433 
0.11011 
0.11011 
0.08926 
0.08926 
0.03373 
0.03373 
0.17211 
0.17211 
0.04129 
0.04129 
0.15173 
0.15173 
0.12336 
0.12336 
0.02069 
0.02069 
0.19540 
0.19540 
0.17698 
0.17698 
0.16871 
0.16871 
0.07388 
0.07388 
0.18940 
0.18940 
0.19640 
0.19640 
0.16153 
0.16153 
0.06491 
0.06491 
0.18697 
0.18697 
0.08324 
0.08324 
0.11988 
0.11988 
0.04346 
0.04346 
0.07585 
0.07585 
0.13859 
0.13859 
0.08397 
0.08397 
0.17628 
0.17628 
0.11480 
0.11480 
0.07221 
0.07221 
0.05330 
0.05330 
0.10548 
0.10548 
0.07932 
0.07932 
0.06809 
0.06809 
0.16752 
0.16752 
0.05513 
0.05513 
0.14179 
0.14179 
0.14421 
0.14421 
0.07260 
0.07260 
0.09845 
0.09845 
0.05797 
0.05797 
0.15447 
0.15447 
0.15921 
0.15921 
0.18152 
0.18152 
0.11650 
0.11650 
0.07898 
0.07898 
0.05638 
0.05638 
0.10781 
0.10781 
0.12489 
0.12489 
0.06561 
0.06561 
0.15808 
0.15808 
0.18029 
0.18029 
0.12584 
0.12584 
0.11180 
0.11180 
0.16065 
0.16065 
0.06855 
0.06855 
0.12957 
0.12957 
0.09086 
0.09086 
0.03489 
0.03489 
0.07387 
0.07387 
0.15158 
0.15158 
0.08870 
0.08870 
0.17912 
0.17912 
0.12402 
0.12402 
0.16340 
0.16340 
0.03613 
0.03613 
0.14467 
0.14467 
0.06725 
0.06725 
0.10609 
0.10609 
0.12851 
0.12851 
0.04294 
0.04294 
0.05536 
0.05536 
0.16079 
0.16079 
0.07384 
0.07384 
0.19042 
0.19042 
0.09021 
0.09021 
0.09826 
0.09826 
0.02468 
0.02468 
0.15852 
0.15852 
0.05478 
0.05478 
0.16618 
0.16618 
0.15620 
0.15620 
0.07961 
0.07961 
0.02857 
0.02857 
0.13853 
0.13853 
0.16984 
0.16984 
0.20146 
0.20146 
0.09648 
0.09648 
0.13508 
0.13508 
0.04869 
0.04869 
0.16191 
0.16191 
0.04879 
0.04879 
0.04687 
0.04687 
0.24549 
0.24549 
0.05266 
0.05266 
0.08116 
0.08116 
0.06828 
0.06828 
0.05345 
0.05345 
0.15788 
0.15788 
0.20237 
0.20237 
0.13150 
0.13150 
0.19127 
0.19127 
0.07493 
0.07493 
0.16390 
0.16390 
0.10200 
0.10200 
0.16802 
0.16802 
0.20073 
0.20073 
0.10945 
0.10945 
0.18183 
0.18183 
0.09191 
0.09191 
0.08377 
0.08377 
0.10142 
0.10142 
0.07635 
0.07635 
0.04453 
0.04453 
0.13042 
0.13042 
0.02221 
0.02221 
0.08669 
0.08669 
0.20988 
0.20988 
0.12034 
0.12034 
0.16943 
0.16943 
0.14641 
0.14641 
0.12152 
0.12152 
0.16980 
0.16980 
0.15692 
0.15692 
0.09514 
0.09514 
0.08644 
0.08644 
0.17971 
0.17971 
0.09111 
0.09111 
0.03924 
0.03924 
0.11451 
0.11451 
0.07533 
0.07533 
0.02386 
0.02386 
0.10312 
0.10312 
0.17272 
0.17272 
0.19010 
0.19010 
0.12472 
0.12472 
0.09039 
0.09039 
0.13305 
0.13305 
0.16866 
0.16866 
0.07816 
0.07816 
0.12664 
0.12664 
0.10480 
0.10480 
0.05275 
0.05275 
0.15256 
0.15256 
0.10262 
0.10262 
0.06359 
0.06359 
0.08883 
0.08883 
0.10735 
0.10735 
0.12396 
0.12396 
0.17527 
0.17527 
0.08946 
0.08946 
0.12232 
0.12232 
0.09112 
0.09112 
0.06747 
0.06747 
0.14060 
0.14060 
0.15479 
0.15479 
0.17741 
0.17741 
0.18789 
0.18789 
0.09364 
0.09364 
0.10171 
0.10171 
0.08817 
0.08817 
0.06779 
0.06779 
0.08258 
0.08258 
0.12214 
0.12214 
0.12217 
0.12217 
0.09470 
0.09470 
0.15636 
0.15636 
0.12623 
0.12623 
0.13792 
0.13792 
0.21372 
0.21372 
0.14216 
0.14216 
0.13201 
0.13201 
0.08092 
0.08092 
0.15015 
0.15015 
0.04008 
0.04008 
0.09907 
0.09907 
0.15089 
0.15089 
0.12128 
0.12128 
0.12572 
0.12572 
0.10688 
0.10688 
0.18142 
0.18142 
0.12334 
0.12334 
0.10187 
0.10187 
0.05896 
0.05896 
0.08467 
0.08467 
0.16261 
0.16261 
0.07700 
0.07700 
0.12664 
0.12664 
0.04788 
0.04788 
0.18351 
0.18351 
0.12778 
0.12778 
0.05249 
0.05249 
0.18094 
0.18094 
0.09522 
0.09522 
0.14934 
0.14934 
0.08538 
0.08538 
0.13449 
0.13449 
0.22204 
0.22204 
0.08239 
0.08239 
0.14391 
0.14391 
0.09261 
0.09261 
0.16603 
0.16603 
0.17005 
0.17005 
0.07575 
0.07575 
0.20094 
0.20094 
0.15851 
0.15851 
0.04979 
0.04979 
0.22532 
0.22532 
0.09579 
0.09579 
0.09206 
0.09206 
0.10102 
0.10102 
0.14357 
0.14357 
0.02367 
0.02367 
0.18013 
0.18013 
0.14447 
0.14447 
0.11657 
0.11657 
0.10927 
0.10927 
0.10835 
0.10835 
0.05811 
0.05811 
0.05006 
0.05006 
0.14840 
0.14840 
0.09374 
0.09374 
0.10454 
0.10454 
0.06762 
0.06762 
0.09057 
0.09057 
0.13587 
0.13587 
0.06697 
0.06697 
0.20425 
0.20425 
0.13405 
0.13405 
0.16659 
0.16659 
0.08585 
0.08585 
0.12110 
0.12110 
0.12923 
0.12923 
0.08301 
0.08301 
0.11559 
0.11559 
0.12147 
0.12147 
0.19104 
0.19104 
0.24097 
0.24097 
0.19073 
0.19073 
0.13703 
0.13703 
0.12144 
0.12144 
0.15779 
0.15779 
0.21133 
0.21133 
0.17267 
0.17267 
0.11333 
0.11333 
0.11681 
0.11681 
0.08404 
0.08404 
0.15037 
0.15037 
0.10797 
0.10797 
0.11566 
0.11566 
0.14523 
0.14523 
0.07347 
0.07347 
0.09558 
0.09558 
0.16749 
0.16749 
0.08159 
0.08159 
0.13958 
0.13958 
0.09918 
0.09918 
0.15111 
0.15111 
0.17156 
0.17156 
0.16974 
0.16974 
0.21298 
0.21298 
0.13994 
0.13994 
0.17830 
0.17830 
0.04540 
0.04540 
0.03767 
0.03767 
0.09641 
0.09641 
0.05751 
0.05751 
0.09777 
0.09777 
0.15990 
0.15990 
0.13928 
0.13928 
0.06009 
0.06009 
0.12241 
0.12241 
0.05378 
0.05378 
0.16750 
0.16750 
0.18371 
0.18371 
0.03733 
0.03733 
0.16819 
0.16819 
0.10206 
0.10206 
0.11561 
0.11561 
0.15121 
0.15121 
0.06781 
0.06781 
0.07477 
0.07477 
0.10620 
0.10620 
0.13966 
0.13966 
0.13180 
0.13180 
0.11492 
0.11492 
0.18809 
0.18809 
0.15398 
0.15398 
0.16946 
0.16946 
0.14127 
0.14127 
0.10842 
0.10842 
0.22668 
0.22668 
0.15826 
0.15826 
0.09457 
0.09457 
0.10951 
0.10951 
0.16742 
0.16742 
0.06853 
0.06853 
0.08270 
0.08270 
0.03774 
0.03774 
0.16265 
0.16265 
0.18302 
0.18302 
0.07938 
0.07938 
0.06618 
0.06618 
0.07181 
0.07181 
0.05444 
0.05444 
0.09236 
0.09236 
0.16396 
0.16396 
0.14478 
0.14478 
0.19117 
0.19117 
0.12994 
0.12994 
0.09826 
0.09826 
0.03955 
0.03955 
0.14620 
0.14620 
0.18104 
0.18104 
0.13161 
0.13161 
0.04687 
0.04687 
0.09667 
0.09667 
0.14053 
0.14053 
0.15053 
0.15053 
0.10118 
0.10118 
0.15307 
0.15307 
0.16481 
0.16481 
0.12263 
0.12263 
0.24195 
0.24195 
0.11624 
0.11624 
0.14016 
0.14016 
0.14452 
0.14452 
0.11360 
0.11360 
0.12096 
0.12096 
0.20962 
0.20962 
0.09684 
0.09684 
0.11718 
0.11718 
0.08152 
0.08152 
0.11482 
0.11482 
0.16949 
0.16949 
0.06504 
0.06504 
0.24258 
0.24258 
0.14589 
0.14589 
0.09024 
0.09024 
0.15508 
0.15508 
0.13498 
0.13498 
0.08522 
0.08522 
0.13368 
0.13368 
0.09808 
0.09808 
0.10257 
0.10257 
0.11817 
0.11817 
0.12363 
0.12363 
0.12599 
0.12599 
0.07438 
0.07438 
0.13052 
0.13052 
SCALARS Umean_X double 1 
LOOKUP_TABLE default
0.03450 
0.03450 
0.02500 
0.02500 
0.03600 
0.03600 
0.02250 
0.02250 
0.06300 
0.06300 
-0.03900 
-0.03900 
-0.02750 
-0.02750 
0.11000 
0.11000 
-0.00900 
-0.00900 
0.04350 
0.04350 
0.04050 
0.04050 
0.06050 
0.06050 
0.02550 
0.02550 
0.01450 
0.01450 
0.04850 
0.04850 
-0.05900 
-0.05900 
0.00350 
0.00350 
-0.02150 
-0.02150 
-0.01700 
-0.01700 
0.00800 
0.00800 
0.06350 
0.06350 
0.12550 
0.12550 
0.03950 
0.03950 
0.01100 
0.01100 
0.07450 
0.07450 
0.05700 
0.05700 
0.03100 
0.03100 
0.05050 
0.05050 
0.00200 
0.00200 
0.01700 
0.01700 
-0.04450 
-0.04450 
0.01000 
0.01000 
0.00650 
0.00650 
0.04500 
0.04500 
0.06550 
0.06550 
-0.02800 
-0.02800 
0.01200 
0.01200 
0.01600 
0.01600 
0.00250 
0.00250 
0.09100 
0.09100 
0.08600 
0.08600 
0.05450 
0.05450 
0.00950 
0.00950 
0.05250 
0.05250 
0.05450 
0.05450 
-0.03050 
-0.03050 
0.09050 
0.09050 
0.02900 
0.02900 
0.06950 
0.06950 
0.07550 
0.07550 
0.06700 
0.06700 
0.00850 
0.00850 
0.07100 
0.07100 
0.02200 
0.02200 
-0.01150 
-0.01150 
0.13300 
0.13300 
0.02450 
0.02450 
0.00650 
0.00650 
0.00800 
0.00800 
0.06000 
0.06000 
0.12150 
0.12150 
0.05600 
0.05600 
-0.05600 
-0.05600 
0.03500 
0.03500 
0.00550 
0.00550 
0.00500 
0.00500 
0.06050 
0.06050 
0.00450 
0.00450 
0.09250 
0.09250 
0.06850 
0.06850 
0.06450 
0.06450 
0.05100 
0.05100 
0.06400 
0.06400 
0.08850 
0.08850 
0.01950 
0.01950 
-0.02500 
-0.02500 
0.11300 
0.11300 
0.02300 
0.02300 
-0.02200 
-0.02200 
0.04650 
0.04650 
-0.00800 
-0.00800 
0.11850 
0.11850 
0.08400 
0.08400 
0.10050 
0.10050 
-0.05800 
-0.05800 
0.07200 
0.07200 
0.01100 
0.01100 
0.04700 
0.04700 
0.07150 
0.07150 
0.09750 
0.09750 
0.09300 
0.09300 
0.04400 
0.04400 
0.01700 
0.01700 
0.05450 
0.05450 
0.02650 
0.02650 
0.06000 
0.06000 
0.00550 
0.00550 
0.07200 
0.07200 
0.00500 
0.00500 
0.00700 
0.00700 
0.04700 
0.04700 
0.05900 
0.05900 
0.08050 
0.08050 
-0.00050 
-0.00050 
0.09100 
0.09100 
0.13500 
0.13500 
0.07550 
0.07550 
0.04900 
0.04900 
0.06550 
0.06550 
0.01650 
0.01650 
0.10300 
0.10300 
0.05200 
0.05200 
0.00800 
0.00800 
0.00850 
0.00850 
0.08450 
0.08450 
0.07400 
0.07400 
0.02400 
0.02400 
0.08000 
0.08000 
0.02150 
0.02150 
0.00950 
0.00950 
0.02800 
0.02800 
0.03300 
0.03300 
0.06650 
0.06650 
0.08150 
0.08150 
0.04650 
0.04650 
0.05050 
0.05050 
0.00350 
0.00350 
0.03500 
0.03500 
0.07400 
0.07400 
-0.00050 
-0.00050 
0.08650 
0.08650 
0.00050 
0.00050 
-0.03650 
-0.03650 
0.04950 
0.04950 
0.14000 
0.14000 
0.03000 
0.03000 
-0.00650 
-0.00650 
0.00800 
0.00800 
-0.00450 
-0.00450 
0.08050 
0.08050 
0.09050 
0.09050 
0.06300 
0.06300 
0.00500 
0.00500 
0.00150 
0.00150 
0.02800 
0.02800 
0.04350 
0.04350 
-0.00850 
-0.00850 
0.10250 
0.10250 
0.03050 
0.03050 
-0.01950 
-0.01950 
0.07500 
0.07500 
-0.01700 
-0.01700 
0.02700 
0.02700 
0.05650 
0.05650 
0.05150 
0.05150 
-0.03900 
-0.03900 
0.04700 
0.04700 
-0.03250 
-0.03250 
0.10350 
0.10350 
0.04950 
0.04950 
0.01750 
0.01750 
0.01850 
0.01850 
0.05200 
0.05200 
0.03500 
0.03500 
-0.02800 
-0.02800 
0.00800 
0.00800 
-0.01850 
-0.01850 
-0.00150 
-0.00150 
0.06900 
0.06900 
0.03400 
0.03400 
0.01000 
0.01000 
0.00600 
0.00600 
0.07450 
0.07450 
-0.00550 
-0.00550 
0.02550 
0.02550 
0.02850 
0.02850 
0.03500 
0.03500 
0.03300 
0.03300 
-0.01050 
-0.01050 
0.05800 
0.05800 
0.01600 
0.01600 
0.12800 
0.12800 
0.08150 
0.08150 
0.10050 
0.10050 
-0.03100 
-0.03100 
0.04650 
0.04650 
0.15400 
0.15400 
0.09850 
0.09850 
0.06350 
0.06350 
0.12000 
0.12000 
0.04600 
0.04600 
0.01100 
0.01100 
0.03850 
0.03850 
0.00600 
0.00600 
0.06300 
0.06300 
0.03600 
0.03600 
0.15300 
0.15300 
0.07350 
0.07350 
0.00850 
0.00850 
-0.05250 
-0.05250 
-0.07200 
-0.07200 
-0.00350 
-0.00350 
0.05800 
0.05800 
0.09550 
0.09550 
-0.02650 
-0.02650 
0.07300 
0.07300 
0.08450 
0.08450 
-0.05750 
-0.05750 
0.01050 
0.01050 
0.00600 
0.00600 
0.04600 
0.04600 
0.05900 
0.05900 
0.11150 
0.11150 
0.10300 
0.10300 
0.01750 
0.01750 
0.02200 
0.02200 
0.02050 
0.02050 
0.12450 
0.12450 
0.06350 
0.06350 
-0.09600 
-0.09600 
0.04000 
0.04000 
0.00450 
0.00450 
-0.00800 
-0.00800 
0.09850 
0.09850 
0.00150 
0.00150 
0.02450 
0.02450 
0.02550 
0.02550 
-0.01850 
-0.01850 
0.02950 
0.02950 
0.00800 
0.00800 
-0.02300 
-0.02300 
0.12300 
0.12300 
-0.06000 
-0.06000 
0.01600 
0.01600 
0.01800 
0.01800 
0.01700 
0.01700 
0.00750 
0.00750 
-0.00100 
-0.00100 
0.10200 
0.10200 
0.01200 
0.01200 
0.03300 
0.03300 
0.07950 
0.07950 
0.04400 
0.04400 
0.15000 
0.15000 
0.00200 
0.00200 
0.04750 
0.04750 
-0.01200 
-0.01200 
-0.00600 
-0.00600 
-0.05000 
-0.05000 
0.02550 
0.02550 
0.09850 
0.09850 
0.00200 
0.00200 
0.00200 
0.00200 
0.09200 
0.09200 
0.06300 
0.06300 
0.12300 
0.12300 
-0.03800 
-0.03800 
0.02400 
0.02400 
0.00550 
0.00550 
0.07400 
0.07400 
0.02800 
0.02800 
-0.00250 
-0.00250 
0.12650 
0.12650 
0.01150 
0.01150 
-0.00200 
-0.00200 
0.05000 
0.05000 
0.02350 
0.02350 
0.05550 
0.05550 
0.01150 
0.01150 
0.02700 
0.02700 
0.09500 
0.09500 
0.05250 
0.05250 
0.07100 
0.07100 
0.05600 
0.05600 
-0.02450 
-0.02450 
0.02400 
0.02400 
0.02700 
0.02700 
0.12250 
0.12250 
-0.04600 
-0.04600 
-0.03200 
-0.03200 
0.00900 
0.00900 
-0.05350 
-0.05350 
0.03950 
0.03950 
0.11700 
0.11700 
0.00650 
0.00650 
-0.04250 
-0.04250 
0.07800 
0.07800 
0.05650 
0.05650 
0.00250 
0.00250 
0.09850 
0.09850 
0.01700 
0.01700 
0.10700 
0.10700 
0.09350 
0.09350 
0.03200 
0.03200 
0.03850 
0.03850 
0.09000 
0.09000 
0.03450 
0.03450 
0.03600 
0.03600 
0.09800 
0.09800 
0.05450 
0.05450 
0.00050 
0.00050 
0.02350 
0.02350 
0.01850 
0.01850 
0.07950 
0.07950 
0.03900 
0.03900 
0.01700 
0.01700 
-0.02700 
-0.02700 
0.07200 
0.07200 
0.03350 
0.03350 
0.00600 
0.00600 
0.07800 
0.07800 
-0.03200 
-0.03200 
0.02150 
0.02150 
0.05300 
0.05300 
-0.05550 
-0.05550 
-0.00850 
-0.00850 
0.01750 
0.01750 
-0.01250 
-0.01250 
-0.08500 
-0.08500 
0.05000 
0.05000 
-0.00950 
-0.00950 
0.04250 
0.04250 
0.01400 
0.01400 
0.08450 
0.08450 
0.07400 
0.07400 
0.11450 
0.11450 
0.13800 
0.13800 
0.06600 
0.06600 
0.02700 
0.02700 
-0.08100 
-0.08100 
-0.02800 
-0.02800 
0.06300 
0.06300 
0.02100 
0.02100 
-0.10800 
-0.10800 
0.01450 
0.01450 
0.02400 
0.02400 
0.06650 
0.06650 
0.08150 
0.08150 
0.09350 
0.09350 
0.08650 
0.08650 
0.04900 
0.04900 
0.05500 
0.05500 
0.01900 
0.01900 
-0.03750 
-0.03750 
-0.00300 
-0.00300 
0.07350 
0.07350 
-0.00300 
-0.00300 
0.04500 
0.04500 
0.07450 
0.07450 
0.12750 
0.12750 
0.05300 
0.05300 
-0.00450 
-0.00450 
-0.00700 
-0.00700 
-0.00600 
-0.00600 
0.02900 
0.02900 
0.05150 
0.05150 
0.04200 
0.04200 
0.04650 
0.04650 
-0.11850 
-0.11850 
0.01000 
0.01000 
0.00300 
0.00300 
0.14350 
0.14350 
0.06650 
0.06650 
-0.03850 
-0.03850 
0.05100 
0.05100 
-0.01150 
-0.01150 
0.00050 
0.00050 
0.00950 
0.00950 
0.06250 
0.06250 
0.01250 
0.01250 
0.01900 
0.01900 
0.05400 
0.05400 
0.01350 
0.01350 
0.01850 
0.01850 
-0.05200 
-0.05200 
0.00050 
0.00050 
0.05100 
0.05100 
0.00550 
0.00550 
0.08300 
0.08300 
-0.01600 
-0.01600 
0.05250 
0.05250 
0.00700 
0.00700 
0.06550 
0.06550 
0.09200 
0.09200 
0.10100 
0.10100 
0.04600 
0.04600 
-0.05450 
-0.05450 
0.00600 
0.00600 
0.02900 
0.02900 
0.07850 
0.07850 
0.04650 
0.04650 
-0.05850 
-0.05850 
0.03650 
0.03650 
0.08450 
0.08450 
0.05600 
0.05600 
-0.00050 
-0.00050 
0.09700 
0.09700 
0.05050 
0.05050 
-0.03450 
-0.03450 
-0.01300 
-0.01300 
0.00400 
0.00400 
0.03500 
0.03500 
0.03200 
0.03200 
-0.08750 
-0.08750 
0.07450 
0.07450 
0.02800 
0.02800 
0.09350 
0.09350 
0.02450 
0.02450 
0.12900 
0.12900 
-0.03950 
-0.03950 
0.04600 
0.04600 
0.10650 
0.10650 
0.02750 
0.02750 
0.03400 
0.03400 
0.08950 
0.08950 
0.05800 
0.05800 
0.11000 
0.11000 
0.10400 
0.10400 
0.08250 
0.08250 
0.08050 
0.08050 
-0.06750 
-0.06750 
-0.01800 
-0.01800 
0.01500 
0.01500 
0.07350 
0.07350 
0.02250 
0.02250 
-0.01050 
-0.01050 
0.04050 
0.04050 
0.06500 
0.06500 
0.07900 
0.07900 
0.15400 
0.15400 
-0.01150 
-0.01150 
0.10850 
0.10850 
-0.01400 
-0.01400 
-0.01650 
-0.01650 
0.04150 
0.04150 
0.05100 
0.05100 
0.02650 
0.02650 
0.00500 
0.00500 
0.08900 
0.08900 
-0.03750 
-0.03750 
0.02850 
0.02850 
0.02400 
0.02400 
0.07400 
0.07400 
0.11950 
0.11950 
-0.02050 
-0.02050 
0.09600 
0.09600 
-0.03300 
-0.03300 
0.03050 
0.03050 
0.08400 
0.08400 
0.00450 
0.00450 
-0.05650 
-0.05650 
-0.04550 
-0.04550 
0.03550 
0.03550 
-0.00800 
-0.00800 
0.07400 
0.07400 
0.12000 
0.12000 
0.08750 
0.08750 
0.09800 
0.09800 
0.00400 
0.00400 
0.06850 
0.06850 
0.09600 
0.09600 
0.07350 
0.07350 
0.00150 
0.00150 
0.09150 
0.09150 
0.02150 
0.02150 
0.03350 
0.03350 
-0.01150 
-0.01150 
0.01000 
0.01000 
0.04350 
0.04350 
0.12000 
0.12000 
0.06650 
0.06650 
0.05750 
0.05750 
-0.04600 
-0.04600 
-0.04650 
-0.04650 
0.00900 
0.00900 
0.08100 
0.08100 
0.09150 
0.09150 
0.10700 
0.10700 
0.04950 
0.04950 
0.06550 
0.06550 
0.03800 
0.03800 
-0.01700 
-0.01700 
0.08900 
0.08900 
0.03800 
0.03800 
0.02800 
0.02800 
-0.04250 
-0.04250 
0.04350 
0.04350 
-0.03350 
-0.03350 
-0.03650 
-0.03650 
0.05200 
0.05200 
0.02500 
0.02500 
0.03650 
0.03650 
0.02100 
0.02100 
-0.01450 
-0.01450 
-0.07000 
-0.07000 
0.03950 
0.03950 
0.06100 
0.06100 
0.06950 
0.06950 
0.09450 
0.09450 
0.05850 
0.05850 
0.05050 
0.05050 
-0.01600 
-0.01600 
0.09350 
0.09350 
0.10450 
0.10450 
-0.03250 
-0.03250 
0.06150 
0.06150 
0.00100 
0.00100 
-0.05000 
-0.05000 
0.01950 
0.01950 
-0.11900 
-0.11900 
-0.04150 
-0.04150 
0.02600 
0.02600 
-0.06600 
-0.06600 
0.09000 
0.09000 
0.09000 
0.09000 
0.09650 
0.09650 
-0.00300 
-0.00300 
0.00450 
0.00450 
0.06450 
0.06450 
SCALARS Umean_Y double 1 
LOOKUP_TABLE default
0.06600 
0.06600 
0.04700 
0.04700 
0.15650 
0.15650 
0.06650 
0.06650 
0.07600 
0.07600 
0.10750 
0.10750 
0.13100 
0.13100 
0.06900 
0.06900 
0.07550 
0.07550 
0.13800 
0.13800 
0.11250 
0.11250 
0.08900 
0.08900 
0.18800 
0.18800 
0.12950 
0.12950 
0.03450 
0.03450 
0.18000 
0.18000 
0.09400 
0.09400 
0.10600 
0.10600 
0.11200 
0.11200 
0.13750 
0.13750 
0.03350 
0.03350 
0.11850 
0.11850 
0.15750 
0.15750 
0.05800 
0.05800 
0.16400 
0.16400 
0.15100 
0.15100 
0.06750 
0.06750 
0.12000 
0.12000 
0.12100 
0.12100 
0.11550 
0.11550 
0.14450 
0.14450 
0.21250 
0.21250 
0.10750 
0.10750 
0.00550 
0.00550 
0.10250 
0.10250 
0.17300 
0.17300 
0.10850 
0.10850 
0.13200 
0.13200 
0.05000 
0.05000 
0.10700 
0.10700 
0.06850 
0.06850 
0.14600 
0.14600 
0.16200 
0.16200 
0.12750 
0.12750 
0.15550 
0.15550 
0.10350 
0.10350 
0.05750 
0.05750 
0.15450 
0.15450 
0.11550 
0.11550 
0.12300 
0.12300 
0.17100 
0.17100 
0.10150 
0.10150 