# vtk DataFile Version 2.1 
Trajects from timestep 71 with color option 
ASCII 
 
DATASET POLYDATA POINTS 1006 float 
2.481 7.092 -70.945 
2.493 7.183 -71.039 
1.886 -3.069 -72.986 
1.831 -2.921 -72.960 
-6.241 6.180 -71.420 
-6.173 6.256 -71.452 
-9.168 2.576 -73.469 
-9.082 2.618 -73.514 
-7.829 2.371 -71.607 
-7.772 2.422 -71.568 
3.946 8.873 -72.381 
3.894 8.985 -72.494 
-3.122 -8.391 -73.594 
-2.938 -8.223 -73.811 
-4.248 6.725 -70.671 
-4.233 6.816 -70.736 
4.111 3.290 -67.755 
4.106 3.528 -67.812 
-8.206 -3.697 -71.955 
-8.158 -3.545 -71.857 
8.813 1.450 -70.282 
9.001 1.617 -70.488 
-3.720 10.017 -71.715 
-3.763 10.214 -71.736 
8.224 -2.281 -72.542 
8.183 -2.143 -72.638 
8.144 0.070 -69.462 
8.292 0.295 -69.590 
2.525 6.724 -73.431 
2.418 6.808 -73.580 
1.481 3.924 -71.057 
1.556 4.239 -71.045 
-7.442 -4.234 -77.803 
-7.418 -4.075 -77.758 
1.573 11.190 -70.006 
1.542 11.338 -70.027 
-2.075 -0.734 -70.836 
-2.037 -0.516 -70.677 
-10.526 2.934 -71.853 
-10.404 2.964 -71.894 
-3.797 -2.216 -69.848 
-3.755 -2.049 -69.945 
9.818 -2.617 -71.080 
9.737 -2.465 -71.090 
2.912 -4.759 -73.908 
2.881 -4.596 -74.001 
-10.766 -4.116 -70.896 
-10.755 -3.948 -70.776 
4.277 8.229 -67.979 
4.325 8.467 -67.977 
-5.889 5.776 -68.456 
-5.860 5.966 -68.508 
-10.196 3.754 -70.009 
-10.037 3.731 -70.063 
-8.194 9.748 -70.070 
-8.128 9.887 -70.226 
-6.713 -9.823 -70.548 
-6.734 -9.530 -70.464 
4.615 -1.231 -66.050 
4.689 -0.974 -66.262 
-2.678 2.021 -65.936 
-2.530 2.363 -65.807 
-0.832 2.072 -68.367 
-0.745 2.354 -68.257 
-11.856 0.916 -72.135 
-11.757 1.012 -72.261 
-0.392 10.584 -64.540 
-0.337 10.781 -64.651 
-1.491 11.464 -66.460 
-1.467 11.708 -66.600 
-3.696 11.059 -72.158 
-3.813 11.197 -72.287 
4.164 9.653 -72.371 
4.081 9.744 -72.476 
3.419 -3.024 -68.096 
3.436 -2.832 -68.289 
-3.174 5.323 -72.154 
-3.160 5.425 -72.145 
-10.609 5.202 -66.785 
-10.407 5.458 -66.814 
-2.215 3.900 -69.915 
-2.120 4.112 -69.821 
-6.849 -1.802 -68.203 
-6.681 -1.459 -68.132 
8.629 7.236 -69.250 
8.661 7.324 -69.316 
1.417 9.879 -70.712 
1.381 10.059 -70.802 
3.522 2.374 -69.598 
3.562 2.673 -69.734 
-1.365 7.825 -72.572 
-1.466 7.942 -72.690 
1.317 -3.261 -73.500 
1.314 -3.131 -73.488 
1.652 3.430 -70.961 
1.647 3.764 -70.981 
8.007 6.736 -71.412 
7.995 6.816 -71.602 
5.182 -3.504 -68.997 
5.293 -3.237 -69.398 
12.029 2.860 -68.796 
12.211 2.918 -68.775 
-10.076 -0.877 -62.392 
-10.128 -0.695 -62.535 
-4.158 2.759 -69.110 
-4.056 2.851 -69.075 
-8.301 -5.709 -68.031 
-8.244 -5.551 -67.883 
-5.242 -2.263 -67.584 
-5.132 -2.044 -67.566 
4.188 10.234 -65.284 
4.259 10.558 -65.277 
-7.601 4.318 -70.108 
-7.338 4.429 -70.088 
-3.356 6.562 -65.617 
-3.226 6.888 -65.640 
3.721 6.951 -65.282 
3.921 7.274 -65.335 
7.991 7.483 -72.215 
7.926 7.644 -72.445 
9.030 -1.666 -73.192 
8.932 -1.647 -73.174 
2.265 4.600 -64.374 
2.402 4.867 -64.557 
1.175 1.910 -70.114 
1.260 2.139 -70.038 
7.937 -5.816 -66.853 
7.972 -5.683 -67.028 
-8.559 7.402 -64.330 
-8.517 7.615 -64.292 
-14.111 -1.230 -68.571 
-14.118 -0.970 -68.667 
-6.272 -6.400 -69.570 
-6.096 -6.206 -69.587 
8.065 6.026 -67.606 
8.183 6.267 -67.693 
-6.455 -7.861 -69.397 
-6.260 -7.577 -69.536 
-3.681 -9.162 -68.661 
-3.496 -8.953 -68.856 
-3.039 10.718 -65.671 
-3.051 11.030 -65.793 
1.726 8.549 -62.667 
1.938 8.911 -62.773 
15.949 9.321 -72.606 
16.009 9.361 -72.865 
6.606 -2.194 -66.899 
6.671 -1.882 -67.105 
-15.759 0.695 -71.972 
-15.692 0.885 -72.177 
-8.713 8.848 -64.047 
-8.719 9.093 -63.986 
1.906 8.041 -68.272 
1.930 8.320 -68.326 
-4.698 1.731 -68.073 
-4.642 1.929 -67.956 
-6.628 0.706 -71.615 
-6.543 0.740 -71.561 
-1.060 -2.057 -64.002 
-0.911 -1.774 -64.258 
-5.362 -2.874 -67.049 
-5.229 -2.673 -67.062 
-4.540 -10.596 -69.178 
-4.572 -10.393 -69.123 
-14.568 -7.649 -70.157 
-14.408 -7.435 -70.293 
3.403 -8.510 -65.936 
3.601 -8.331 -66.248 
0.513 -11.908 -67.995 
0.723 -11.806 -68.165 
7.438 10.835 -71.093 
7.284 10.797 -71.219 
-14.498 -11.028 -73.313 
-14.449 -10.730 -73.353 
1.716 -6.716 -64.502 
1.847 -6.498 -64.843 
-7.672 -1.214 -67.091 
-7.483 -1.038 -67.085 
-12.881 9.646 -70.984 
-12.774 9.712 -70.996 
-8.237 6.371 -71.355 
-8.062 6.396 -71.418 
6.783 -1.371 -66.202 
6.806 -1.059 -66.464 
-10.475 -5.545 -69.060 
-10.376 -5.384 -69.172 
-0.245 -0.216 -66.970 
-0.027 0.012 -66.881 
-8.667 10.358 -68.793 
-8.595 10.457 -68.961 
0.872 -10.204 -66.494 
1.016 -10.035 -66.880 
-11.028 2.873 -71.795 
-10.921 2.947 -71.823 
1.413 2.296 -66.049 
1.493 2.584 -66.083 
-1.206 9.893 -74.161 
-1.314 10.002 -74.268 
12.120 3.049 -72.936 
12.155 3.226 -73.074 
-7.166 11.887 -67.004 
-7.245 12.093 -67.140 
0.245 4.873 -60.981 
0.462 5.147 -61.238 
4.194 5.990 -61.090 
4.342 6.302 -61.116 
8.027 -1.306 -69.766 
8.231 -1.020 -69.927 
-3.868 11.100 -69.961 
-3.905 11.335 -70.016 
8.685 -12.492 -69.199 
8.775 -12.415 -69.095 
9.011 -4.215 -66.771 
9.112 -4.116 -66.797 
-6.704 12.023 -63.994 
-6.704 12.202 -64.051 
6.118 4.589 -71.328 
6.119 4.708 -71.376 
-7.256 11.721 -71.281 
-7.317 11.905 -71.378 
6.698 -8.647 -63.729 
6.660 -8.566 -63.824 
-12.958 12.157 -72.760 
-12.924 12.166 -72.802 
-2.541 0.116 -74.830 
-2.471 0.259 -74.915 
-1.591 -9.094 -71.440 
-1.506 -8.964 -71.582 
8.957 10.378 -67.753 
8.846 10.414 -67.818 
11.967 6.009 -67.755 
11.970 6.131 -67.801 
-7.487 0.594 -65.817 
-7.440 0.800 -65.742 
12.119 -0.230 -73.129 
12.111 -0.199 -73.200 
0.247 7.318 -66.154 
0.417 7.501 -66.252 
-7.261 -11.385 -68.358 
-7.238 -11.205 -68.290 
13.614 -6.965 -67.649 
13.639 -6.880 -67.569 
-0.741 8.612 -72.806 
-0.805 8.715 -73.003 
-4.740 -2.302 -71.748 
-4.666 -1.972 -71.804 
12.097 3.205 -65.112 
12.287 3.374 -65.208 
4.796 -0.690 -74.027 
4.745 -0.506 -74.113 
-14.283 8.363 -76.865 
-14.327 8.367 -76.887 
5.261 5.865 -63.121 
5.366 6.213 -63.285 
-5.793 10.888 -72.507 
-5.909 11.004 -72.616 
-3.615 -1.108 -69.746 
-3.502 -0.964 -69.649 
-9.677 -6.180 -74.418 
-9.702 -5.966 -74.380 
-10.834 9.525 -63.292 
-10.751 9.753 -63.360 
2.907 9.074 -65.235 
2.990 9.396 -65.468 
-5.346 -11.191 -72.180 
-5.281 -10.970 -72.126 
14.384 2.581 -72.529 
14.437 2.707 -72.659 
4.822 -3.976 -69.992 
4.936 -3.755 -70.247 
9.475 -5.233 -73.986 
9.421 -5.134 -74.118 
-8.256 -0.973 -66.510 
-8.171 -0.705 -66.345 
-14.147 7.871 -70.706 
-14.011 7.891 -70.712 
-11.496 2.060 -68.838 
-11.249 2.159 -68.831 
5.923 7.687 -70.233 
5.915 7.859 -70.353 
-14.396 -9.945 -77.633 
-14.385 -9.748 -77.882 
14.197 0.851 -71.099 
14.308 0.947 -71.186 
-0.666 -6.405 -63.621 
-0.493 -6.150 -63.774 
10.333 8.432 -64.048 
10.312 8.614 -64.065 
3.088 9.998 -72.201 
2.985 10.141 -72.271 
-8.238 2.603 -61.191 
-8.222 2.944 -61.210 
-6.415 -2.040 -62.005 
-6.351 -1.948 -62.152 
4.301 -5.981 -64.222 
4.436 -5.767 -64.573 
10.743 -4.598 -65.316 
10.796 -4.465 -65.325 
-11.608 5.406 -66.299 
-11.503 5.635 -66.263 
3.669 -1.395 -62.482 
3.878 -1.181 -62.569 
-12.741 1.976 -63.757 
-12.632 2.178 -63.689 
14.279 -0.479 -70.977 
14.377 -0.387 -71.082 
0.231 -0.216 -63.753 
0.428 0.067 -63.635 
-12.191 13.038 -64.994 
-12.161 13.210 -65.036 
4.092 -0.065 -67.035 
4.140 0.212 -67.195 
9.516 -6.023 -70.579 
9.706 -5.952 -70.593 
-10.423 -6.466 -72.429 
-10.362 -6.102 -72.522 
3.316 -12.212 -69.119 
3.504 -12.090 -69.410 
7.521 8.777 -72.731 
7.435 8.901 -72.928 
8.824 -9.286 -65.052 
8.895 -9.086 -64.971 
12.243 -3.220 -68.838 
12.189 -3.106 -68.967 
-9.634 9.599 -65.237 
-9.652 9.693 -65.308 
-2.302 -10.180 -64.108 
-2.183 -10.035 -64.240 
14.000 -1.718 -71.508 
14.076 -1.601 -71.631 
-6.677 -0.266 -65.508 
-6.529 -0.136 -65.304 
-1.621 10.513 -68.576 
-1.658 10.826 -68.742 
5.511 3.039 -70.223 
5.617 3.301 -70.430 
1.911 -0.911 -68.358 
1.941 -0.536 -68.519 
-10.209 11.277 -67.584 
-10.119 11.363 -67.690 
-14.886 -9.561 -73.281 
-14.883 -9.232 -73.364 
-8.602 11.646 -64.133 
-8.559 11.899 -64.256 
-4.110 9.128 -67.138 
-4.068 9.305 -67.240 
-4.817 6.003 -63.346 
-4.747 6.258 -63.453 
4.492 -7.490 -65.475 
4.742 -7.337 -65.780 
-5.918 -10.253 -72.186 
-5.873 -10.014 -72.159 
-6.911 -8.825 -74.403 
-6.874 -8.705 -74.489 
2.763 11.179 -73.030 
2.593 11.264 -73.122 
15.627 -3.214 -72.801 
15.633 -3.118 -72.887 
-11.694 7.737 -68.960 
-11.578 7.718 -68.963 
2.562 -12.542 -66.407 
2.864 -12.439 -66.620 
-13.910 -4.891 -68.831 
-13.913 -4.688 -68.776 
13.902 -4.389 -72.673 
13.936 -4.346 -72.735 
-8.430 1.091 -67.328 
-8.239 1.346 -67.153 
-3.614 11.611 -65.262 
-3.634 11.831 -65.401 
-0.580 -12.141 -73.872 
-0.502 -11.938 -73.783 
-2.191 -6.931 -64.122 
-2.010 -6.731 -64.091 
-5.877 -3.792 -67.203 
-5.753 -3.480 -67.243 
10.230 -8.458 -68.899 
10.448 -8.499 -68.839 
6.413 -8.933 -71.940 
6.584 -8.892 -71.993 
9.982 6.264 -62.965 
10.042 6.514 -62.856 
9.005 8.382 -70.288 
8.962 8.518 -70.372 
14.903 9.724 -72.521 
14.913 9.780 -72.632 
1.050 -1.543 -75.705 
1.047 -1.395 -75.591 
-12.418 6.864 -72.555 
-12.422 6.919 -72.570 
10.426 -3.192 -64.148 
10.444 -3.095 -64.292 
-6.349 5.497 -68.518 
-6.328 5.708 -68.462 
3.705 7.427 -66.407 
3.763 7.657 -66.534 
11.408 -2.928 -72.593 
11.360 -2.906 -72.622 
-7.189 5.239 -62.086 
-7.221 5.436 -62.134 
14.756 -7.775 -72.354 
14.735 -7.642 -72.395 
-1.414 -10.595 -65.274 
-1.317 -10.462 -65.535 
14.671 -0.761 -65.488 
14.738 -0.606 -65.438 
7.719 -10.083 -64.843 
7.800 -9.853 -64.786 
-3.450 5.006 -67.465 
-3.379 5.262 -67.447 
6.236 2.474 -74.723 
6.274 2.394 -74.926 
12.296 -3.187 -71.722 
12.322 -3.113 -71.776 
3.354 -5.428 -69.172 
3.477 -5.206 -69.379 
-12.403 10.624 -65.270 
-12.323 10.669 -65.336 
8.560 -12.199 -64.693 
8.608 -11.988 -64.443 
11.249 9.729 -69.603 
11.328 9.825 -69.744 
15.784 5.777 -67.943 
15.815 5.911 -68.025 
11.778 0.860 -77.092 
11.636 0.929 -77.148 
4.470 -8.134 -63.726 
4.713 -7.878 -63.906 
-13.049 4.666 -68.190 
-12.984 4.748 -68.275 
2.851 -9.825 -65.012 
2.931 -9.643 -65.281 
5.578 -2.306 -73.429 
5.505 -2.080 -73.439 
-9.297 -4.764 -65.019 
-9.104 -4.652 -65.054 
4.420 10.414 -76.700 
4.235 10.493 -76.794 
-8.636 9.240 -74.600 
-8.761 9.349 -74.749 
7.492 -12.353 -70.048 
[...]
POINT_DATA 1006 
SCALARS Umean double 1 
LOOKUP_TABLE default
0.06569 
0.06569 
0.08001 
0.08001 
0.05344 
0.05344 
0.05288 
0.05288 
0.04293 
0.04293 
0.08369 
0.08369 
0.16520 
0.16520 
0.05642 
0.05642 
0.12239 
0.12239 
0.09356 
0.09356 
0.16253 
0.16253 
0.10136 
0.10136 
0.08652 
0.08652 
0.14909 
0.14909 
0.10088 
0.10088 
0.16201 
0.16201 
0.08349 
0.08349 
0.07633 
0.07633 
0.13624 
0.13624 
0.06608 
0.06608 
0.09882 
0.09882 
0.08626 
0.08626 
0.09510 
0.09510 
0.10337 
0.10337 
0.12140 
0.12140 
0.09956 
0.09956 
0.08474 
0.08474 
0.10956 
0.10956 
0.15276 
0.15276 
0.17064 
0.17064 
0.19717 
0.19717 
0.15747 
0.15747 
0.09340 
0.09340 
0.11636 
0.11636 
0.14117 
0.14117 
0.11110 
0.11110 
0.08092 
0.08092 
0.13638 
0.13638 
0.05167 
0.05167 
0.16369 
0.16369 
0.12530 
0.12530 
0.19424 
0.19424 
0.05728 
0.05728 
0.10222 
0.10222 
0.16545 
0.16545 
0.09723 
0.09723 
0.06529 
0.06529 
0.16732 
0.16732 
0.10325 
0.10325 
0.24719 
0.24719 
0.09608 
0.09608 
0.11861 
0.11861 
0.07087 
0.07087 
0.11193 
0.11193 
0.12287 
0.12287 
0.16588 
0.16588 
0.14308 
0.14308 
0.17586 
0.17586 
0.19179 
0.19179 
0.14409 
0.14409 
0.05072 
0.05072 
0.17575 
0.17575 
0.12791 
0.12791 
0.11129 
0.11129 
0.11020 
0.11020 
0.13862 
0.13862 
0.13124 
0.13124 
0.14104 
0.14104 
0.18574 
0.18574 
0.17024 
0.17024 
0.16761 
0.16761 
0.21635 
0.21635 
0.13443 
0.13443 
0.18974 
0.18974 
0.14371 
0.14371 
0.12628 
0.12628 
0.14259 
0.14259 
0.11835 
0.11835 
0.05314 
0.05314 
0.20483 
0.20483 
0.12068 
0.12068 
0.10637 
0.10637 
0.14991 
0.14991 
0.20530 
0.20530 
0.14440 
0.14440 
0.10129 
0.10129 
0.15232 
0.15232 
0.21270 
0.21270 
0.12916 
0.12916 
0.06314 
0.06314 
0.09383 
0.09383 
0.20403 
0.20403 
0.10985 
0.10985 
0.16388 
0.16388 
0.10393 
0.10393 
0.22265 
0.22265 
0.06654 
0.06654 
0.15042 
0.15042 
0.09353 
0.09353 
0.11358 
0.11358 
0.12959 
0.12959 
0.21692 
0.21692 
0.17315 
0.17315 
0.19322 
0.19322 
0.12209 
0.12209 
0.07881 
0.07881 
0.07190 
0.07190 
0.09393 
0.09393 
0.06416 
0.06416 
0.10838 
0.10838 
0.06525 
0.06525 
0.02739 
0.02739 
0.09024 
0.09024 
0.10522 
0.10522 
0.06679 
0.06679 
0.06521 
0.06521 
0.11210 
0.11210 
0.03894 
0.03894 
0.13416 
0.13416 
0.09689 
0.09689 
0.05969 
0.05969 
0.11567 
0.11567 
0.17140 
0.17140 
0.13590 
0.13590 
0.10471 
0.10471 
0.02468 
0.02468 
0.19939 
0.19939 
0.09848 
0.09848 
0.10358 
0.10358 
0.10939 
0.10939 
0.12599 
0.12599 
0.20302 
0.20302 
0.11830 
0.11830 
0.09432 
0.09432 
0.17809 
0.17809 
0.08681 
0.08681 
0.16300 
0.16300 
0.06880 
0.06880 
0.13310 
0.13310 
0.10494 
0.10494 
0.15885 
0.15885 
0.08530 
0.08530 
0.17202 
0.17202 
0.09200 
0.09200 
0.09481 
0.09481 
0.17095 
0.17095 
0.09242 
0.09242 
0.21635 
0.21635 
0.07173 
0.07173 
0.12724 
0.12724 
0.15576 
0.15576 
0.11970 
0.11970 
0.08528 
0.08528 
0.18222 
0.18222 
0.08979 
0.08979 
0.16174 
0.16174 
0.10166 
0.10166 
0.19031 
0.19031 
0.18365 
0.18365 
0.12408 
0.12408 
0.11358 
0.11358 
0.09021 
0.09021 
0.05958 
0.05958 
0.11468 
0.11468 
0.09300 
0.09300 
0.14179 
0.14179 
0.17811 
0.17811 
0.17516 
0.17516 
0.20460 
0.20460 
0.08175 
0.08175 
0.16966 
0.16966 
0.14229 
0.14229 
0.10428 
0.10428 
0.14263 
0.14263 
0.21150 
0.21150 
0.12235 
0.12235 
0.07610 
0.07610 
0.10558 
0.10558 
0.06451 
0.06451 
0.05879 
0.05879 
0.19182 
0.19182 
0.10517 
0.10517 
0.04138 
0.04138 
0.18175 
0.18175 
0.13050 
0.13050 
0.11749 
0.11749 
0.13576 
0.13576 
0.16906 
0.16906 
0.11490 
0.11490 
0.09183 
0.09183 
0.13963 
0.13963 
0.08277 
0.08277 
0.06236 
0.06236 
0.09342 
0.09342 
0.02857 
0.02857 
0.08728 
0.08728 
0.10966 
0.10966 
0.13453 
0.13453 
0.03012 
0.03012 
0.10264 
0.10264 
0.07038 
0.07038 
0.15429 
0.15429 
0.08805 
0.08805 
0.12521 
0.12521 
0.13314 
0.13314 
0.11074 
0.11074 
0.04761 
0.04761 
0.16375 
0.16375 
0.05653 
0.05653 
0.16532 
0.16532 
0.09399 
0.09399 
0.08006 
0.08006 
0.08376 
0.08376 
0.19811 
0.19811 
0.06741 
0.06741 
0.16725 
0.16725 
0.11885 
0.11885 
0.11294 
0.11294 
0.11102 
0.11102 
0.11148 
0.11148 
0.08633 
0.08633 
0.11256 
0.11256 
0.05627 
0.05627 
0.06389 
0.06389 
0.06534 
0.06534 
0.03738 
0.03738 
0.15393 
0.15393 
0.06827 
0.06827 
0.12479 
0.12479 
0.05808 
0.05808 
0.16180 
0.16180 
0.05149 
0.05149 
0.04969 
0.04969 
0.15322 
0.15322 
0.10862 
0.10862 
0.22225 
0.22225 
0.15507 
0.15507 
0.13834 
0.13834 
0.08537 
0.08537 
0.11481 
0.11481 
0.12704 
0.12704 
0.14869 
0.14869 
0.07614 
0.07614 
0.14654 
0.14654 
0.03973 
0.03973 
0.07469 
0.07469 
0.08674 
0.08674 
0.15730 
0.15730 
0.09538 
0.09538 
0.16143 
0.16143 
0.14076 
0.14076 
0.10656 
0.10656 
0.10991 
0.10991 
0.16916 
0.16916 
0.08185 
0.08185 
0.10401 
0.10401 
0.11551 
0.11551 
0.07983 
0.07983 
0.17227 
0.17227 
0.06698 
0.06698 
0.10166 
0.10166 
0.07128 
0.07128 
0.05041 
0.05041 
0.09432 
0.09432 
0.10777 
0.10777 
0.12257 
0.12257 
0.12833 
0.12833 
0.08555 
0.08555 
0.07972 
0.07972 
0.17736 
0.17736 
0.12202 
0.12202 
0.13822 
0.13822 
0.06253 
0.06253 
0.16660 
0.16660 
0.11497 
0.11497 
0.07853 
0.07853 
0.09299 
0.09299 
0.02055 
0.02055 
0.10566 
0.10566 
0.06506 
0.06506 
0.14972 
0.14972 
0.13745 
0.13745 
0.12444 
0.12444 
0.05572 
0.05572 
0.10691 
0.10691 
0.09133 
0.09133 
0.16600 
0.16600 
0.14822 
0.14822 
0.06806 
0.06806 
0.18813 
0.18813 
0.10244 
0.10244 
0.15320 
0.15320 
0.06853 
0.06853 
0.18973 
0.18973 
0.07864 
0.07864 
0.15264 
0.15264 
0.12266 
0.12266 
0.05121 
0.05121 
0.15644 
0.15644 
0.17010 
0.17010 
0.10502 
0.10502 
0.18319 
0.18319 
0.09220 
0.09220 
0.14514 
0.14514 
0.12839 
0.12839 
0.18995 
0.18995 
0.06246 
0.06246 
0.14500 
0.14500 
0.13146 
0.13146 
0.10155 
0.10155 
0.09013 
0.09013 
0.15095 
0.15095 
0.11102 
0.11102 
0.17449 
0.17449 
0.06702 
0.06702 
0.10655 
0.10655 
0.15915 
0.15915 
0.11495 
0.11495 
0.05471 
0.05471 
0.17772 
0.17772 
0.08967 
0.08967 
0.13137 
0.13137 
0.13233 
0.13233 
0.21303 
0.21303 
0.17416 
0.17416 
0.16470 
0.16470 
0.15415 
0.15415 
0.17248 
0.17248 
0.15752 
0.15752 
0.15437 
0.15437 
0.11259 
0.11259 
0.10540 
0.10540 
0.08929 
0.08929 
0.14083 
0.14083 
0.15486 
0.15486 
0.17174 
0.17174 
0.12584 
0.12584 
0.21391 
0.21391 
0.17920 
0.17920 
0.12080 
0.12080 
0.13137 
0.13137 
0.13637 
0.13637 
0.08932 
0.08932 
0.20008 
0.20008 
0.08181 
0.08181 
0.05450 
0.05450 
0.14008 
0.14008 
0.11875 
0.11875 
0.13467 
0.13467 
0.17515 
0.17515 
0.14642 
0.14642 
0.20196 
0.20196 
0.12520 
0.12520 
0.08326 
0.08326 
0.16668 
0.16668 
0.14815 
0.14815 
0.13314 
0.13314 
0.11216 
0.11216 
0.10798 
0.10798 
0.14947 
0.14947 
0.07123 
0.07123 
0.09422 
0.09422 
0.08140 
0.08140 
0.13830 
0.13830 
0.16726 
0.16726 
0.18915 
0.18915 
0.12515 
0.12515 
0.08387 
0.08387 
0.09255 
0.09255 
0.08183 
0.08183 
0.12110 
0.12110 
0.19102 
0.19102 
0.10599 
0.10599 
0.09983 
0.09983 
0.12535 
0.12535 
0.21720 
0.21720 
0.10192 
0.10192 
0.04103 
0.04103 
0.06318 
0.06318 
0.03746 
0.03746 
0.07460 
0.07460 
0.11628 
0.11628 
0.05624 
0.05624 
0.10740 
0.10740 
0.06679 
0.06679 
0.10661 
0.10661 
0.10039 
0.10039 
0.12451 
0.12451 
0.03290 
0.03290 
0.13392 
0.13392 
0.18676 
0.18676 
0.16543 
0.16543 
0.16179 
0.16179 
0.10512 
0.10512 
0.12872 
0.12872 
0.11118 
0.11118 
0.08590 
0.08590 
0.20036 
0.20036 
0.18047 
0.18047 
0.23328 
0.23328 
0.11113 
0.11113 
0.11609 
0.11609 
0.09087 
0.09087 
0.08543 
0.08543 
0.20450 
0.20450 
0.15892 
0.15892 
0.07860 
0.07860 
0.10038 
0.10038 
0.08258 
0.08258 
0.16123 
0.16123 
0.06351 
0.06351 
0.06585 
0.06585 
0.11496 
0.11496 
0.13819 
0.13819 
0.21851 
0.21851 
0.11122 
0.11122 
0.06806 
0.06806 
0.14094 
0.14094 
0.03649 
0.03649 
0.12597 
0.12597 
0.12059 
0.12059 
0.16416 
0.16416 
0.07131 
0.07131 
0.21258 
0.21258 
0.14020 
0.14020 
0.12653 
0.12653 
0.09030 
0.09030 
0.11510 
0.11510 
0.06509 
0.06509 
0.04789 
0.04789 
0.05245 
0.05245 
0.19406 
0.19406 
0.15111 
0.15111 
0.08846 
0.08846 
0.13834 
0.13834 
0.11443 
0.11443 
0.07445 
0.07445 
0.20488 
0.20488 
0.06244 
0.06244 
0.07105 
0.07105 
0.10639 
0.10639 
0.08090 
0.08090 
0.07318 
0.07318 
0.18775 
0.18775 
0.13901 
0.13901 
0.15042 
0.15042 
0.09844 
0.09844 
0.15811 
0.15811 
0.17400 
0.17400 
0.10101 
0.10101 
0.18892 
0.18892 
0.09317 
0.09317 
0.14679 
0.14679 
0.21037 
0.21037 
0.18635 
0.18635 
0.06510 
0.06510 
0.09431 
0.09431 
0.22629 
0.22629 
0.09808 
0.09808 
0.11639 
0.11639 
0.09964 
0.09964 
0.07161 
0.07161 
0.10420 
0.10420 
0.32283 
0.32283 
0.05841 
0.05841 
0.04519 
0.04519 
0.16788 
0.16788 
0.16182 
0.16182 
0.02656 
0.02656 
0.05919 
0.05919 
0.12378 
0.12378 
0.07629 
0.07629 
0.03455 
0.03455 
0.09402 
0.09402 
0.03837 
0.03837 
0.10291 
0.10291 
0.11458 
0.11458 
0.20092 
0.20092 
0.16249 
0.16249 
0.11342 
0.11342 
0.11252 
0.11252 
0.11132 
0.11132 
0.10058 
0.10058 
0.05224 
0.05224 
0.07119 
0.07119 
0.18007 
0.18007 
0.09634 
0.09634 
0.14687 
0.14687 
0.04966 
0.04966 
0.18005 
0.18005 
0.20773 
0.20773 
0.10390 
0.10390 
0.14081 
0.14081 
0.05879 
0.05879 
0.15117 
0.15117 
0.03938 
0.03938 
0.12872 
0.12872 
0.10477 
0.10477 
0.10408 
0.10408 
0.15333 
0.15333 
0.13215 
0.13215 
0.10211 
0.10211 
0.12237 
0.12237 
SCALARS Umean_X double 1 
LOOKUP_TABLE default
0.00600 
0.00600 
-0.02750 
-0.02750 
0.03400 
0.03400 
0.04300 
0.04300 
0.02850 
0.02850 
-0.02600 
-0.02600 
0.09200 
0.09200 
0.00750 
0.00750 
-0.00250 
-0.00250 
0.02400 
0.02400 
0.09400 
0.09400 
-0.02150 
-0.02150 
-0.02050 
-0.02050 
0.07400 
0.07400 
-0.05350 
-0.05350 
0.03750 
0.03750 
0.01200 
0.01200 
-0.01550 
-0.01550 
0.01900 
0.01900 
0.06100 
0.06100 
0.02100 
0.02100 
-0.04050 
-0.04050 
-0.01550 
-0.01550 
0.00550 
0.00550 
0.02400 
0.02400 
0.01450 
0.01450 
0.07950 
0.07950 
0.03300 
0.03300 
-0.01050 
-0.01050 
0.03700 
0.03700 
0.07400 
0.07400 
0.04350 
0.04350 
0.04950 
0.04950 
0.02750 
0.02750 
0.01200 
0.01200 
-0.05850 
-0.05850 
-0.04150 
-0.04150 
0.00850 
0.00850 
0.00700 
0.00700 
0.10100 
0.10100 
0.04750 
0.04750 
0.08400 
0.08400 
0.01600 
0.01600 
-0.01800 
-0.01800 
0.02000 
0.02000 
-0.05050 
-0.05050 
-0.00150 
-0.00150 
-0.00250 
-0.00250 
-0.00600 
-0.00600 
0.05550 
0.05550 
0.09100 
0.09100 
-0.02600 
-0.02600 
0.05100 
0.05100 
0.02850 
0.02850 
0.05500 
0.05500 
0.03550 
0.03550 
0.13150 
0.13150 
0.06500 
0.06500 
0.10000 
0.10000 
-0.03250 
-0.03250 
-0.04900 
-0.04900 
0.06850 
0.06850 
0.04250 
0.04250 
0.01750 
0.01750 
0.02100 
0.02100 
-0.00350 
-0.00350 
0.08800 
0.08800 
0.05900 
0.05900 
0.09750 
0.09750 
0.09250 
0.09250 
-0.00600 
-0.00600 
0.10600 
0.10600 
0.03000 
0.03000 
0.03250 
0.03250 
0.03350 
0.03350 
-0.00300 
-0.00300 
0.01200 
0.01200 
0.02800 
0.02800 
0.04250 
0.04250 
0.07450 
0.07450 
0.06650 
0.06650 
-0.01600 
-0.01600 
0.08000 
0.08000 
0.09900 
0.09900 
0.10500 
0.10500 
-0.07700 
-0.07700 
0.02450 
0.02450 
0.06550 
0.06550 
0.09450 
0.09450 
0.05350 
0.05350 
0.08750 
0.08750 
0.01150 
0.01150 
0.04950 
0.04950 
0.10900 
0.10900 
0.03600 
0.03600 
0.07200 
0.07200 
0.05350 
0.05350 
0.04000 
0.04000 
-0.05400 
-0.05400 
0.01750 
0.01750 
-0.03950 
-0.03950 
0.10850 
0.10850 
0.07400 
0.07400 
0.10200 
0.10200 
-0.01850 
-0.01850 
0.04500 
0.04500 
0.05050 
0.05050 
-0.00000 
-0.00000 
0.00050 
0.00050 
-0.03050 
-0.03050 
-0.01900 
-0.01900 
0.01700 
0.01700 
0.03500 
0.03500 
0.04250 
0.04250 
-0.05550 
-0.05550 
0.00150 
0.00150 
0.02350 
0.02350 
-0.00400 
-0.00400 
0.08500 
0.08500 
0.01150 
0.01150 
0.01250 
0.01250 
-0.03200 
-0.03200 
0.03700 
0.03700 
0.09500 
0.09500 
-0.02550 
-0.02550 
-0.02200 
-0.02200 
0.05250 
0.05250 
-0.05800 
-0.05800 
0.05650 
0.05650 
-0.01250 
-0.01250 
0.04150 
0.04150 
0.04150 
0.04150 
0.03250 
0.03250 
0.02650 
0.02650 
0.05700 
0.05700 
-0.02700 
-0.02700 
0.04250 
0.04250 
0.06800 
0.06800 
0.12350 
0.12350 
-0.00400 
-0.00400 
0.00550 
0.00550 
0.05550 
0.05550 
0.08650 
0.08650 
-0.01050 
-0.01050 
-0.05150 
-0.05150 
0.00800 
0.00800 
0.03200 
0.03200 
0.06750 
0.06750 
0.02650 
0.02650 
0.05250 
0.05250 
0.10450 
0.10450 
0.05450 
0.05450 
0.04900 
0.04900 
0.09850 
0.09850 
0.01500 
0.01500 
0.02400 
0.02400 
0.09500 
0.09500 
0.03050 
0.03050 
0.09400 
0.09400 
-0.04300 
-0.04300 
0.03550 
0.03550 
-0.02700 
-0.02700 
-0.00900 
-0.00900 
0.05950 
0.05950 
0.03800 
0.03800 
0.07400 
0.07400 
-0.01850 
-0.01850 
0.05300 
0.05300 
0.01500 
0.01500 
0.04500 
0.04500 
0.00150 
0.00150 
0.02150 
0.02150 
0.02100 
0.02100 
0.03500 
0.03500 
0.12500 
0.12500 
0.02250 
0.02250 
0.01850 
0.01850 
-0.08500 
-0.08500 
0.00300 
0.00300 
0.05800 
0.05800 
0.15100 
0.15100 
-0.00150 
-0.00150 
0.01700 
0.01700 
0.09550 
0.09550 
-0.01000 
-0.01000 
0.03900 
0.03900 
0.09050 
0.09050 
0.06200 
0.06200 
0.10900 
0.10900 
0.08550 
0.08550 
0.03000 
0.03000 
-0.02150 
-0.02150 
0.00500 
0.00500 
-0.00150 
-0.00150 
-0.00200 
-0.00200 
0.00900 
0.00900 
0.01050 
0.01050 
0.02900 
0.02900 
-0.02400 
-0.02400 
-0.01600 
-0.01600 
-0.01050 
-0.01050 
0.04850 
0.04850 
0.03350 
0.03350 
0.04050 
0.04050 
0.03550 
0.03550 
0.01900 
0.01900 
0.01300 
0.01300 
0.06150 
0.06150 
0.04000 
0.04000 
0.02400 
0.02400 
0.03950 
0.03950 
0.01550 
0.01550 
-0.07100 
-0.07100 
0.12150 
0.12150 
0.03250 
0.03250 
0.04000 
0.04000 
-0.03650 
-0.03650 
0.09650 
0.09650 
-0.09250 
-0.09250 
-0.06250 
-0.06250 
0.08450 
0.08450 
-0.04350 
-0.04350 
0.00800 
0.00800 
0.00050 
0.00050 
-0.04050 
-0.04050 
-0.00300 
-0.00300 
-0.08200 
-0.08200 
0.00800 
0.00800 
-0.03300 
-0.03300 
-0.03950 
-0.03950 
0.10850 
0.10850 
0.03500 
0.03500 
0.02900 
0.02900 
0.10050 
0.10050 
0.00250 
0.00250 
0.11000 
0.11000 
0.09050 
0.09050 
0.10750 
0.10750 
0.07350 
0.07350 
-0.02700 
-0.02700 
0.01500 
0.01500 
0.04850 
0.04850 
0.01300 
0.01300 
-0.00450 
-0.00450 
-0.00800 
-0.00800 
-0.04000 
-0.04000 
-0.03050 
-0.03050 
0.11850 
0.11850 
0.02600 
0.02600 
0.06550 
0.06550 
-0.01300 
-0.01300 
0.07500 
0.07500 
-0.00600 
-0.00600 
0.12350 
0.12350 
-0.01250 
-0.01250 
0.07150 
0.07150 
-0.01350 
-0.01350 
0.02050 
0.02050 
0.11450 
0.11450 
-0.02100 
-0.02100 
0.04200 
0.04200 
-0.03600 
-0.03600 
0.03100 
0.03100 
-0.03450 
-0.03450 
0.03000 
0.03000 
0.04750 
0.04750 
0.02250 
0.02250 
-0.03650 
-0.03650 
0.00850 
0.00850 
0.07250 
0.07250 
0.10250 
0.10250 
0.09350 
0.09350 
-0.01750 
-0.01750 
-0.00750 
-0.00750 
0.09950 
0.09950 
-0.00200 
-0.00200 
0.03650 
0.03650 
0.01650 
0.01650 
0.02300 
0.02300 
0.05650 
0.05650 
0.00800 
0.00800 
0.00750 
0.00750 
0.03500 
0.03500 
0.04050 
0.04050 
0.10150 
0.10150 
-0.01850 
-0.01850 
0.11750 
0.11750 
0.07850 
0.07850 
-0.02550 
-0.02550 
0.07750 
0.07750 
-0.07200 
-0.07200 
0.04350 
0.04350 
0.02600 
0.02600 
0.09250 
0.09250 
-0.04200 
-0.04200 
0.07150 
0.07150 
0.03800 
0.03800 
0.03600 
0.03600 
0.02150 
0.02150 
0.07850 
0.07850 
0.04650 
0.04650 
0.08250 
0.08250 
0.05250 
0.05250 
0.10650 
0.10650 
-0.04250 
-0.04250 
0.06950 
0.06950 
0.02000 
0.02000 
0.06450 
0.06450 
-0.11650 
-0.11650 
-0.07000 
-0.07000 
0.02350 
0.02350 
0.06650 
0.06650 
-0.04950 
-0.04950 
-0.04100 
-0.04100 
0.02100 
0.02100 
0.08700 
0.08700 
-0.02000 
-0.02000 
0.06400 
0.06400 
0.00350 
0.00350 
0.12550 
0.12550 
-0.01800 
-0.01800 
0.04300 
0.04300 
0.11850 
0.11850 
0.05850 
0.05850 
0.02350 
0.02350 
-0.00700 
-0.00700 
0.06600 
0.06600 
0.10600 
0.10600 
0.05350 
0.05350 
0.06750 
0.06750 
-0.09300 
-0.09300 
0.03100 
0.03100 
-0.02350 
-0.02350 
0.06500 
0.06500 
0.04950 
0.04950 
0.10000 
0.10000 
-0.08700 
-0.08700 
0.10150 
0.10150 
0.04000 
0.04000 
0.05700 
0.05700 
0.10100 
0.10100 
0.01850 
0.01850 
-0.03400 
-0.03400 
0.11550 
0.11550 
0.05200 
0.05200 
-0.02050 
-0.02050 
-0.00300 
-0.00300 
0.01550 
0.01550 
0.05700 
0.05700 
0.11150 
0.11150 
0.08350 
0.08350 
0.04000 
0.04000 
0.08200 
0.08200 
-0.05650 
-0.05650 
-0.10350 
-0.10350 
0.06400 
0.06400 
-0.01300 
-0.01300 
0.08050 
0.08050 
0.01300 
0.01300 
0.13100 
0.13100 
0.04700 
0.04700 
0.04200 
0.04200 
-0.00500 
-0.00500 
0.10250 
0.10250 
0.09150 
0.09150 
0.04850 
0.04850 
0.06750 
0.06750 
0.00750 
0.00750 
0.08950 
0.08950 
0.02050 
0.02050 
-0.04050 
-0.04050 
0.15850 
0.15850 
0.06600 
0.06600 
0.03950 
0.03950 
-0.05850 
-0.05850 
0.16000 
0.16000 
0.02500 
0.02500 
0.03100 
0.03100 
-0.05900 
-0.05900 
0.03300 
0.03300 
0.01250 
0.01250 
-0.06350 
-0.06350 
-0.02450 
-0.02450 
0.08450 
0.08450 
0.03550 
0.03550 
0.02450 
0.02450 
-0.00000 
-0.00000 
0.02400 
0.02400 
-0.01600 
-0.01600 
-0.00700 
-0.00700 
0.12350 
0.12350 
0.06350 
0.06350 
-0.01600 
-0.01600 
0.09500 
0.09500 
0.09850 
0.09850 
0.01050 
0.01050 
0.07950 
0.07950 
0.10350 
0.10350 
-0.00500 
-0.00500 
0.10250 
0.10250 
0.01400 
0.01400 
-0.04950 
-0.04950 
0.00350 
0.00350 
0.01050 
0.01050 
0.02850 
0.02850 
0.01700 
0.01700 
0.06400 
0.06400 
0.05800 
0.05800 
0.01750 
0.01750 
0.00150 
0.00150 
0.05550 
0.05550 
-0.00250 
-0.00250 
0.04300 
0.04300 
0.01400 
0.01400 
0.08200 
0.08200 
0.00050 
0.00050 
0.05400 
0.05400 
0.06150 
0.06150 
-0.00150 
-0.00150 
-0.05800 
-0.05800 
0.09100 
0.09100 
0.00450 
0.00450 
-0.05900 
-0.05900 
0.11400 
0.11400 
0.08050 
0.08050 
0.03250 
0.03250 
0.00850 
0.00850 
0.04400 
0.04400 
0.06300 
0.06300 
0.00600 
0.00600 
0.02750 
0.02750 
0.10600 
0.10600 
0.08200 
0.08200 
0.04550 
0.04550 
0.00350 
0.00350 
0.09000 
0.09000 
-0.01150 
-0.01150 
0.14600 
0.14600 
0.04700 
0.04700 
0.00600 
0.00600 
0.09500 
0.09500 
-0.02450 
-0.02450 
0.05900 
0.05900 
0.01750 
0.01750 
0.02000 
0.02000 
0.12100 
0.12100 
-0.04200 
-0.04200 
0.03500 
0.03500 
0.08000 
0.08000 
0.05950 
0.05950 
-0.08900 
-0.08900 
-0.04000 
-0.04000 
0.02450 
0.02450 
0.04300 
0.04300 
0.03050 
0.03050 
-0.02500 
-0.02500 
0.05850 
0.05850 
0.00200 
0.00200 
-0.05050 
-0.05050 
-0.04900 
-0.04900 
0.05300 
0.05300 
0.03750 
0.03750 
0.04250 
0.04250 
0.14750 
0.14750 
0.04650 
0.04650 
0.00500 
0.00500 
0.06150 
0.06150 
0.10000 
0.10000 
-0.02350 
-0.02350 
0.01750 
0.01750 
-0.03650 
-0.03650 
0.01750 
0.01750 
-0.01950 
-0.01950 
0.03200 
0.03200 
0.01350 
0.01350 
0.07350 
0.07350 
-0.01600 
-0.01600 
0.12600 
0.12600 
0.03450 
0.03450 
0.01700 
0.01700 
-0.08700 
-0.08700 
-0.04300 
-0.04300 
0.03150 
0.03150 
-0.01700 
-0.01700 
-0.06200 
-0.06200 
-0.11500 
-0.11500 
-0.03600 
-0.03600 
0.03350 
0.03350 
-0.00650 
-0.00650 
0.11900 
0.11900 
0.05500 
0.05500 
0.05650 
0.05650 
0.04600 
0.04600 
-0.03850 
-0.03850 
0.07200 
0.07200 
0.00350 
0.00350 
0.03350 
0.03350 
0.00200 
0.00200 
-0.07400 
-0.07400 
0.12500 
0.12500 
0.00700 
0.00700 
-0.05700 
-0.05700 
0.01100 
0.01100 
SCALARS Umean_Y double 1 
LOOKUP_TABLE default
0.04550 
0.04550 
0.07400 
0.07400 
0.03800 
0.03800 
0.02100 
0.02100 
0.02550 
0.02550 
0.05600 
0.05600 
0.08400 
0.08400 
0.04550 
0.04550 
0.11900 
0.11900 
0.07600 
0.07600 
0.08350 
0.08350 
0.09850 
0.09850 
0.06900 
0.06900 
0.11250 
0.11250 
0.04200 
0.04200 
0.15750 
0.15750 
0.07950 
0.07950 
0.07400 
0.07400 
0.10900 
0.10900 
0.01500 
0.01500 
0.08350 
0.08350 
0.07600 
0.07600 
0.08150 
0.08150 
0.08400 
0.08400 
0.11900 
0.11900 
0.09500 
0.09500 
-0.01150 
-0.01150 
0.06950 
0.06950 
0.14650 
0.14650 
0.12850 
0.12850 
0.17100 
0.17100 
0.14100 
0.14100 
0.04800 
0.04800 
0.09850 
0.09850 
0.12200 
0.12200 
0.06900 
0.06900 
0.04550 
0.04550 
0.09600 
0.09600 
0.05100 
0.05100 
0.12800 
0.12800 
0.10600 
0.10600 
0.17150 
0.17150 
0.04400 
0.04400 
0.09000 
0.09000 
0.14950 
0.14950 
0.05850 
0.05850 
0.06500 
0.06500 
0.16700 
0.16700 
0.04000 
0.04000 
0.13350 
0.13350 
0.02900 
0.02900 
0.09100 
0.09100 
0.04600 
0.04600 
0.07900 
0.07900 
0.10950 
0.10950 
0.16200 
0.16200 
0.05550 
0.05550 
0.16300 
0.16300 
0.16150 
0.16150 
0.08050 
0.08050 
0.00950 
0.00950 
0.13350 
0.13350 
0.11450 
0.11450 
0.06650 
0.06650 
0.10650 
0.10650 
0.13000 
0.13000 
0.09700 
0.09700 
0.12050 
0.12050 
0.14200 
0.14200 
0.10450 
0.10450 
0.15600 
0.15600 
0.18100 
0.18100 
0.02000 
0.02000 
0.15600 
0.15600 
0.09500 
0.09500 
0.12250 
0.12250 
0.13950 
0.13950 
0.09900 
0.09900 
0.01700 
0.01700 
0.14150 
0.14150 
0.10050 