# vtk DataFile Version 2.1 
Trajects from timestep 69 with color option 
ASCII 
 
DATASET POLYDATA POINTS 1026 float 
-6.380 6.049 -71.347 
-6.307 6.113 -71.383 
-9.335 2.471 -73.346 
-9.252 2.523 -73.406 
-8.344 -4.037 -72.217 
-8.297 -3.868 -72.191 
2.041 -3.384 -72.967 
1.948 -3.224 -72.986 
5.311 2.466 -69.848 
5.412 2.748 -70.035 
-2.385 3.525 -70.049 
-2.291 3.722 -69.975 
1.644 10.902 -70.000 
1.605 11.042 -69.998 
-3.528 10.742 -71.905 
-3.610 10.901 -72.039 
-10.809 -4.495 -71.207 
-10.787 -4.304 -71.058 
6.542 7.103 -74.695 
6.445 7.110 -74.852 
-3.598 9.634 -71.451 
-3.676 9.818 -71.683 
-3.147 4.232 -67.972 
-3.063 4.379 -67.847 
7.849 -0.384 -69.207 
7.996 -0.157 -69.335 
4.135 7.738 -67.901 
4.205 7.986 -67.934 
-4.706 6.638 -72.168 
-4.678 6.741 -72.263 
8.417 1.091 -69.876 
8.630 1.287 -70.075 
3.447 1.871 -69.215 
3.486 2.165 -69.370 
1.066 1.330 -70.380 
1.075 1.611 -70.233 
-4.784 1.344 -68.232 
-4.744 1.544 -68.139 
-3.885 -2.475 -69.754 
-3.836 -2.347 -69.822 
8.487 6.980 -68.931 
8.565 7.111 -69.095 
-1.007 1.517 -68.558 
-0.920 1.786 -68.474 
-10.789 2.879 -71.780 
-10.663 2.915 -71.830 
-8.329 -6.052 -68.167 
-8.315 -5.869 -68.092 
14.847 9.566 -72.241 
14.858 9.629 -72.368 
7.775 8.493 -72.385 
7.644 8.635 -72.537 
-2.956 1.297 -66.244 
-2.816 1.673 -66.079 
-13.859 -6.302 -76.353 
-14.046 -6.261 -76.494 
-0.547 8.306 -72.531 
-0.631 8.437 -72.682 
3.852 1.252 -67.579 
3.933 1.553 -67.643 
4.099 8.613 -72.209 
4.022 8.741 -72.289 
-5.952 5.364 -68.361 
-5.917 5.570 -68.413 
1.370 -3.513 -73.514 
1.335 -3.377 -73.526 
11.628 2.705 -68.791 
11.840 2.791 -68.794 
-7.451 -4.487 -77.822 
-7.448 -4.336 -77.787 
-2.841 8.023 -68.064 
-2.791 8.227 -68.056 
-3.485 -8.867 -72.983 
-3.326 -8.621 -73.285 
-4.374 2.613 -69.123 
-4.258 2.690 -69.091 
-2.982 -4.081 -73.650 
-2.943 -3.935 -73.676 
4.052 9.462 -65.189 
4.103 9.858 -65.243 
14.704 -4.376 -73.605 
14.712 -4.253 -73.755 
-4.558 -12.454 -70.232 
-4.578 -12.162 -70.072 
-6.655 -10.371 -70.697 
-6.693 -10.100 -70.644 
-4.197 8.717 -66.939 
-4.154 8.916 -67.049 
14.126 -0.619 -70.834 
14.228 -0.522 -70.921 
-8.633 7.002 -64.379 
-8.596 7.202 -64.356 
-3.788 10.641 -69.830 
-3.823 10.864 -69.876 
4.476 -1.755 -65.634 
4.537 -1.492 -65.851 
4.063 2.867 -67.602 
4.098 3.074 -67.689 
3.806 8.324 -75.716 
3.636 8.349 -75.858 
9.104 8.114 -69.874 
9.059 8.283 -69.981 
2.723 6.521 -73.115 
2.632 6.626 -73.268 
1.330 3.322 -70.961 
1.402 3.606 -70.999 
-12.444 6.696 -72.564 
-12.453 6.759 -72.586 
-1.229 7.544 -72.321 
-1.292 7.693 -72.451 
3.393 -3.432 -67.744 
3.407 -3.229 -67.920 
-9.195 13.050 -66.241 
-9.134 13.213 -66.289 
3.315 6.307 -65.111 
3.521 6.632 -65.192 
2.475 6.878 -70.764 
2.469 6.981 -70.814 
-3.909 12.599 -70.648 
-4.074 12.704 -70.690 
-7.095 11.371 -71.043 
-7.173 11.540 -71.165 
3.081 -6.007 -68.742 
3.192 -5.792 -69.007 
-7.478 -1.886 -64.188 
-7.444 -1.758 -64.122 
7.391 11.751 -72.556 
7.189 11.803 -72.690 
5.927 7.349 -70.018 
5.929 7.525 -70.074 
-7.635 0.218 -66.088 
-7.565 0.395 -66.058 
8.789 -4.419 -66.749 
8.915 -4.307 -66.760 
2.791 8.434 -65.106 
2.853 8.762 -65.150 
-7.039 10.784 -75.184 
-7.133 10.924 -75.279 
7.812 10.868 -70.837 
7.609 10.862 -70.962 
-11.457 -2.396 -65.860 
-11.423 -2.032 -65.848 
14.875 -7.992 -72.267 
14.830 -7.883 -72.321 
11.961 5.736 -67.661 
11.970 5.883 -67.713 
13.894 -1.885 -71.249 
13.935 -1.809 -71.398 
-11.277 2.721 -71.742 
-11.159 2.797 -71.772 
2.924 9.529 -66.486 
2.945 9.802 -66.509 
1.266 7.816 -62.476 
1.499 8.171 -62.561 
0.732 -10.943 -62.111 
0.830 -10.782 -62.252 
6.757 -8.884 -63.716 
6.737 -8.757 -63.730 
1.475 -7.076 -63.965 
1.596 -6.902 -64.225 
2.983 -12.400 -68.394 
3.106 -12.335 -68.737 
-9.610 -6.570 -74.387 
-9.663 -6.379 -74.420 
-8.092 4.113 -70.123 
-7.809 4.202 -70.043 
-14.096 -1.817 -68.460 
-14.103 -1.524 -68.530 
-1.092 8.629 -69.192 
-1.184 8.840 -69.461 
1.981 4.066 -63.977 
2.120 4.323 -64.182 
4.944 -0.979 -73.969 
4.860 -0.850 -74.005 
6.889 -0.502 -65.980 
6.983 -0.255 -66.288 
7.859 -6.096 -66.558 
7.907 -5.949 -66.704 
-14.898 -8.073 -69.871 
-14.748 -7.869 -70.002 
-0.726 -0.734 -67.270 
-0.478 -0.475 -67.122 
-9.025 2.559 -68.976 
-8.893 2.629 -68.876 
-7.102 -2.338 -68.332 
-6.968 -2.046 -68.251 
-3.966 2.736 -65.159 
-3.855 2.979 -64.943 
-5.496 -0.305 -63.037 
-5.429 -0.100 -62.940 
0.780 -2.953 -73.795 
0.776 -2.845 -73.735 
9.555 -5.400 -73.757 
9.519 -5.324 -73.887 
-2.920 -10.870 -58.711 
-2.804 -10.738 -58.800 
13.276 1.346 -72.614 
13.322 1.442 -72.730 
6.452 -2.756 -66.458 
6.556 -2.477 -66.620 
8.546 3.869 -66.929 
8.659 4.170 -67.104 
11.733 2.862 -64.886 
11.914 3.039 -65.005 
-2.185 -1.092 -71.033 
-2.130 -0.901 -70.972 
-8.533 -10.331 -69.587 
-8.434 -10.035 -69.777 
4.322 9.468 -72.174 
4.217 9.572 -72.319 
-14.497 8.227 -71.954 
-14.503 8.284 -71.991 
-6.770 -8.344 -69.130 
-6.632 -8.123 -69.320 
7.614 5.755 -66.545 
7.708 5.982 -66.603 
-10.955 9.058 -63.212 
-10.897 9.308 -63.263 
12.209 12.555 -68.590 
11.955 12.648 -68.812 
-3.718 -0.781 -65.473 
-3.635 -0.632 -65.498 
5.734 1.311 -72.766 
5.793 1.603 -72.974 
3.912 5.333 -60.994 
4.082 5.695 -60.944 
-2.312 9.909 -60.145 
-2.299 10.057 -60.263 
-2.915 -8.570 -67.913 
-2.764 -8.355 -68.069 
13.582 -7.137 -67.798 
13.599 -7.048 -67.728 
5.769 4.366 -65.064 
5.896 4.613 -65.233 
4.582 -1.365 -64.339 
4.729 -1.081 -64.575 
-8.900 11.913 -66.758 
-8.830 12.116 -66.948 
6.725 -1.952 -65.688 
6.764 -1.653 -65.900 
-6.641 11.622 -63.892 
-6.684 11.827 -63.940 
-9.150 -2.058 -66.615 
-9.103 -1.913 -66.560 
7.574 -12.103 -66.395 
7.824 -12.003 -66.244 
-7.886 -1.530 -67.333 
-7.760 -1.366 -67.184 
6.035 11.890 -71.786 
5.820 11.988 -71.988 
3.978 -0.632 -66.690 
4.041 -0.342 -66.868 
-6.636 -6.770 -69.527 
-6.460 -6.610 -69.563 
-12.314 12.760 -64.989 
-12.253 12.896 -64.988 
-13.088 9.497 -70.941 
-12.976 9.580 -70.951 
12.161 -0.260 -72.936 
12.154 -0.234 -73.030 
5.071 4.970 -66.063 
5.203 5.308 -66.144 
-1.008 0.746 -64.975 
-0.972 0.984 -64.880 
-4.128 6.325 -77.750 
-4.247 6.320 -77.900 
3.028 -8.922 -65.276 
3.203 -8.706 -65.649 
0.597 -10.540 -65.857 
0.737 -10.362 -66.157 
0.145 -12.170 -67.608 
0.313 -12.040 -67.823 
-1.645 -10.920 -64.917 
-1.512 -10.740 -65.068 
4.022 -6.423 -63.552 
4.177 -6.185 -63.882 
-13.010 6.718 -66.642 
-12.971 6.825 -66.668 
8.326 -2.554 -72.319 
8.257 -2.435 -72.468 
-4.925 5.548 -63.188 
-4.866 5.787 -63.254 
-0.071 -0.670 -63.907 
0.074 -0.457 -63.816 
7.172 -12.483 -70.245 
7.327 -12.401 -70.179 
-10.000 2.477 -68.019 
-9.814 2.656 -67.891 
9.217 10.310 -67.715 
9.089 10.345 -67.739 
-5.311 1.102 -63.247 
-5.243 1.360 -63.115 
-3.607 4.497 -67.504 
-3.531 4.744 -67.490 
-15.282 -7.059 -73.056 
-15.233 -6.960 -73.207 
0.694 -6.764 -69.068 
0.826 -6.532 -69.316 
-11.500 -0.703 -75.805 
-11.407 -0.700 -75.861 
-0.304 6.820 -72.773 
-0.392 6.915 -72.912 
1.016 -3.188 -67.743 
1.243 -2.859 -67.870 
-15.209 -4.351 -71.592 
-15.220 -4.234 -71.638 
-12.167 0.155 -67.660 
-12.124 0.308 -67.580 
-8.322 2.026 -61.358 
-8.269 2.347 -61.252 
6.613 -8.432 -64.415 
6.621 -8.292 -64.519 
-1.586 1.234 -74.419 
-1.494 1.423 -74.441 
9.385 -2.650 -71.344 
9.299 -2.541 -71.372 
-7.034 11.490 -66.769 
-7.092 11.669 -66.872 
9.145 -6.168 -70.540 
9.326 -6.101 -70.579 
-0.849 -6.123 -62.066 
-0.714 -6.009 -62.183 
10.379 -3.356 -63.910 
10.416 -3.280 -64.054 
-1.559 10.960 -66.218 
-1.533 11.189 -66.283 
6.526 -2.080 -72.707 
6.496 -1.887 -72.770 
16.555 -10.320 -68.846 
16.624 -10.233 -68.873 
12.289 -3.298 -71.670 
12.302 -3.226 -71.675 
-8.791 0.605 -67.609 
-8.601 0.870 -67.449 
5.051 -2.636 -69.924 
5.146 -2.370 -70.061 
4.003 -7.808 -64.852 
4.251 -7.644 -65.173 
-6.936 -0.532 -65.858 
-6.814 -0.406 -65.681 
-11.806 4.949 -66.400 
-11.716 5.165 -66.365 
9.828 -8.389 -68.900 
10.042 -8.408 -68.901 
-4.635 4.608 -69.436 
-4.487 4.750 -69.463 
9.405 2.646 -64.558 
9.518 2.954 -64.765 
-11.142 9.957 -65.097 
-11.177 10.125 -65.177 
1.691 0.590 -71.302 
1.639 0.827 -71.259 
-2.580 -10.506 -63.871 
-2.430 -10.339 -63.994 
-3.064 -6.190 -77.589 
-3.067 -6.077 -77.611 
13.999 0.707 -70.917 
14.099 0.761 -71.035 
0.972 -12.133 -66.565 
1.235 -11.949 -66.813 
4.427 -5.361 -62.552 
4.640 -5.161 -62.923 
-12.021 1.784 -68.951 
-11.765 1.904 -69.040 
8.522 -12.632 -69.390 
8.603 -12.563 -69.298 
-6.978 11.830 -75.280 
-7.012 12.006 -75.352 
-2.641 3.110 -66.209 
-2.672 3.503 -66.203 
14.938 -6.576 -68.847 
14.820 -6.521 -68.856 
14.286 2.322 -72.277 
14.318 2.428 -72.384 
2.209 11.221 -61.267 
2.207 11.514 -61.283 
-11.950 7.780 -69.025 
-11.804 7.746 -68.971 
-10.448 11.100 -67.353 
-10.329 11.176 -67.454 
-9.616 2.437 -65.848 
-9.430 2.710 -65.927 
-2.678 -0.114 -74.801 
-2.590 -0.022 -74.851 
4.817 -11.981 -65.961 
5.006 -11.942 -65.907 
15.489 4.569 -71.204 
15.544 4.727 -71.328 
-8.938 7.233 -67.243 
-8.856 7.333 -67.232 
-3.816 11.292 -74.470 
-4.021 11.294 -74.569 
-8.002 -6.744 -71.779 
-7.746 -6.480 -71.863 
-4.169 -9.655 -68.231 
-3.913 -9.421 -68.446 
7.498 -10.571 -64.968 
7.619 -10.317 -64.884 
-7.267 -4.607 -67.466 
-7.213 -4.399 -67.539 
-6.413 5.040 -68.317 
-6.385 5.271 -68.379 
-5.427 8.233 -77.013 
-5.417 8.322 -77.074 
-5.266 1.560 -64.839 
-5.218 1.744 -64.577 
-1.624 9.943 -68.233 
-1.611 10.246 -68.407 
15.347 -3.927 -72.716 
15.393 -3.873 -72.816 
-0.558 -4.007 -65.371 
-0.199 -3.746 -65.427 
-5.077 -1.992 -75.330 
-5.129 -1.893 -75.321 
-8.589 1.027 -60.967 
-8.660 1.296 -60.861 
7.806 2.400 -69.786 
8.026 2.598 -69.914 
-6.525 9.037 -75.702 
-6.588 9.177 -75.792 
5.135 -11.121 -65.039 
5.258 -11.027 -65.071 
-7.950 -1.996 -60.124 
-7.859 -1.896 -60.222 
11.695 11.273 -74.039 
11.607 11.288 -74.244 
11.146 8.948 -64.364 
11.113 9.135 -64.383 
2.194 -12.248 -70.181 
2.444 -12.118 -70.562 
-11.779 -1.941 -73.848 
-11.801 -1.867 -73.830 
-0.797 -12.459 -73.969 
-0.709 -12.313 -73.918 
-11.451 -4.133 -60.512 
-11.375 -4.036 -60.696 
1.238 1.680 -66.136 
1.321 1.985 -66.070 
3.560 6.888 -66.291 
3.631 7.159 -66.403 
-7.940 2.254 -71.669 
[...]
POINT_DATA 1026 
SCALARS Umean double 1 
LOOKUP_TABLE default
0.05177 
0.05177 
0.05743 
0.05743 
0.08867 
0.08867 
0.09302 
0.09302 
0.17656 
0.17656 
0.11524 
0.11524 
0.07267 
0.07267 
0.11176 
0.11176 
0.12162 
0.12162 
0.09234 
0.09234 
0.15310 
0.15310 
0.10523 
0.10523 
0.14960 
0.14960 
0.12990 
0.12990 
0.07145 
0.07145 
0.17563 
0.17563 
0.16732 
0.16732 
0.15863 
0.15863 
0.11208 
0.11208 
0.07650 
0.07650 
0.11196 
0.11196 
0.14747 
0.14747 
0.07013 
0.07013 
0.09913 
0.09913 
0.07110 
0.07110 
0.12291 
0.12291 
0.21691 
0.21691 
0.11888 
0.11888 
0.10842 
0.10842 
0.15911 
0.15911 
0.08472 
0.08472 
0.10766 
0.10766 
0.07047 
0.07047 
0.11440 
0.11440 
0.07752 
0.07752 
0.10510 
0.10510 
0.21036 
0.21036 
0.07143 
0.07143 
0.07667 
0.07667 
0.20145 
0.20145 
0.09707 
0.09707 
0.16678 
0.16678 
0.13937 
0.13937 
0.11570 
0.11570 
0.08274 
0.08274 
0.10235 
0.10235 
0.11518 
0.11518 
0.17319 
0.17319 
0.11363 
0.11363 
0.11146 
0.11146 
0.10251 
0.10251 
0.10334 
0.10334 
0.14772 
0.14772 
0.03367 
0.03367 
0.10377 
0.10377 
0.13452 
0.13452 
0.09027 
0.09027 
0.19661 
0.19661 
0.05733 
0.05733 
0.10002 
0.10002 
0.11128 
0.11128 
0.17942 
0.17942 
0.07399 
0.07399 
0.12396 
0.12396 
0.09235 
0.09235 
0.09634 
0.09634 
0.08447 
0.08447 
0.16835 
0.16835 
0.09677 
0.09677 
0.11924 
0.11924 
0.18289 
0.18289 
0.06485 
0.06485 
0.07809 
0.07809 
0.08611 
0.08611 
0.07176 
0.07176 
0.13739 
0.13739 
0.21653 
0.21653 
0.11769 
0.11769 
0.06466 
0.06466 
0.16772 
0.16772 
0.18507 
0.18507 
0.10047 
0.10047 
0.15363 
0.15363 
0.15066 
0.15066 
0.17702 
0.17702 
0.17846 
0.17846 
0.07905 
0.07905 
0.20292 
0.20292 
0.10634 
0.10634 
0.14255 
0.14255 
0.19396 
0.19396 
0.08989 
0.08989 
0.16567 
0.16567 
0.17177 
0.17177 
0.11824 
0.11824 
0.06181 
0.06181 
0.07741 
0.07741 
0.09849 
0.09849 
0.07872 
0.07872 
0.16949 
0.16949 
0.18303 
0.18303 
0.13987 
0.13987 
0.10396 
0.10396 
0.18270 
0.18270 
0.10352 
0.10352 
0.03411 
0.03411 
0.16123 
0.16123 
0.12622 
0.12622 
0.13083 
0.13083 
0.17496 
0.17496 
0.08619 
0.08619 
0.18167 
0.18167 
0.20152 
0.20152 
0.09486 
0.09486 
0.15278 
0.15278 
0.05725 
0.05725 
0.16256 
0.16256 
0.19872 
0.19872 
0.14336 
0.14336 
0.18430 
0.18430 
0.10745 
0.10745 
0.08102 
0.08102 
0.15435 
0.15435 
0.12745 
0.12745 
0.15543 
0.15543 
0.17303 
0.17303 
0.12028 
0.12028 
0.07453 
0.07453 
0.06988 
0.06988 
0.04889 
0.04889 
0.18590 
0.18590 
0.12939 
0.12939 
0.09577 
0.09577 
0.23260 
0.23260 
0.18794 
0.18794 
0.15112 
0.15112 
0.13499 
0.13499 
0.21770 
0.21770 
0.05841 
0.05841 
0.10139 
0.10139 
0.12743 
0.12743 
0.13663 
0.13663 
0.09368 
0.09368 
0.14407 
0.14407 
0.06743 
0.06743 
0.14884 
0.14884 
0.12940 
0.12940 
0.09355 
0.09355 
0.18218 
0.18218 
0.05430 
0.05430 
0.09499 
0.09499 
0.20970 
0.20970 
0.06310 
0.06310 
0.08896 
0.08896 
0.17109 
0.17109 
0.08729 
0.08729 
0.10568 
0.10568 
0.07082 
0.07082 
0.10725 
0.10725 
0.09845 
0.09845 
0.10596 
0.10596 
0.08349 
0.08349 
0.11973 
0.11973 
0.10261 
0.10261 
0.05714 
0.05714 
0.03667 
0.03667 
0.18161 
0.18161 
0.15696 
0.15696 
0.21877 
0.21877 
0.12459 
0.12459 
0.11830 
0.11830 
0.10742 
0.10742 
0.10344 
0.10344 
0.19396 
0.19396 
0.09467 
0.09467 
0.12321 
0.12321 
0.12798 
0.12798 
0.05758 
0.05758 
0.08191 
0.08191 
0.20281 
0.20281 
0.23612 
0.23612 
0.14820 
0.14820 
0.07033 
0.07033 
0.09659 
0.09659 
0.19713 
0.19713 
0.06525 
0.06525 
0.07699 
0.07699 
0.14672 
0.14672 
0.07967 
0.07967 
0.08680 
0.08680 
0.16983 
0.16983 
0.06839 
0.06839 
0.10020 
0.10020 
0.10412 
0.10412 
0.06489 
0.06489 
0.11383 
0.11383 
0.18861 
0.18861 
0.20403 
0.20403 
0.14681 
0.14681 
0.11348 
0.11348 
0.12040 
0.12040 
0.05418 
0.05418 
0.16187 
0.16187 
0.17482 
0.17482 
0.06130 
0.06130 
0.22368 
0.22368 
0.05609 
0.05609 
0.14886 
0.14886 
0.16124 
0.16124 
0.08898 
0.08898 
0.07904 
0.07904 
0.08349 
0.08349 
0.11180 
0.11180 
0.09542 
0.09542 
0.23694 
0.23694 
0.03964 
0.03964 
0.08897 
0.08897 
0.11073 
0.11073 
0.16145 
0.16145 
0.15085 
0.15085 
0.04903 
0.04903 
0.05441 
0.05441 
0.07406 
0.07406 
0.10809 
0.10809 
0.11270 
0.11270 
0.06755 
0.06755 
0.04575 
0.04575 
0.06280 
0.06280 
0.12017 
0.12017 
0.10089 
0.10089 
0.10260 
0.10260 
0.11661 
0.11661 
0.15631 
0.15631 
0.09369 
0.09369 
0.14476 
0.14476 
0.06722 
0.06722 
0.09938 
0.09938 
0.19180 
0.19180 
0.09071 
0.09071 
0.12712 
0.12712 
0.13935 
0.13935 
0.10552 
0.10552 
0.03269 
0.03269 
0.08774 
0.08774 
0.04326 
0.04326 
0.12596 
0.12596 
0.11501 
0.11501 
0.09390 
0.09390 
0.06039 
0.06039 
0.14877 
0.14877 
0.13099 
0.13099 
0.09215 
0.09215 
0.17579 
0.17579 
0.14102 
0.14102 
0.14994 
0.14994 
0.04691 
0.04691 
0.09597 
0.09597 
0.14210 
0.14210 
0.20613 
0.20613 
0.15248 
0.15248 
0.15250 
0.15250 
0.07291 
0.07291 
0.12565 
0.12565 
0.18138 
0.18138 
0.09549 
0.09549 
0.08675 
0.08675 
0.18154 
0.18154 
0.08855 
0.08855 
0.14384 
0.14384 
0.11693 
0.11693 
0.12576 
0.12576 
0.13107 
0.13107 
0.10851 
0.10851 
0.11852 
0.11852 
0.05348 
0.05348 
0.07741 
0.07741 
0.14036 
0.14036 
0.09133 
0.09133 
0.11252 
0.11252 
0.18078 
0.18078 
0.12018 
0.12018 
0.08733 
0.08733 
0.22479 
0.22479 
0.08631 
0.08631 
0.12160 
0.12160 
0.05383 
0.05383 
0.04521 
0.04521 
0.16094 
0.16094 
0.08413 
0.08413 
0.07581 
0.07581 
0.08779 
0.08779 
0.17470 
0.17470 
0.13752 
0.13752 
0.07782 
0.07782 
0.08381 
0.08381 
0.18670 
0.18670 
0.05827 
0.05827 
0.20435 
0.20435 
0.06326 
0.06326 
0.06698 
0.06698 
0.11003 
0.11003 
0.06872 
0.06872 
0.12118 
0.12118 
0.07450 
0.07450 
0.13583 
0.13583 
0.08432 
0.08432 
0.08662 
0.08662 
0.13987 
0.13987 
0.10512 
0.10512 
0.07224 
0.07224 
0.11145 
0.11145 
0.11227 
0.11227 
0.16444 
0.16444 
0.07534 
0.07534 
0.03823 
0.03823 
0.14173 
0.14173 
0.07501 
0.07501 
0.11184 
0.11184 
0.06348 
0.06348 
0.14076 
0.14076 
0.16081 
0.16081 
0.11396 
0.11396 
0.10442 
0.10442 
0.22011 
0.22011 
0.14284 
0.14284 
0.11774 
0.11774 
0.08557 
0.08557 
0.04482 
0.04482 
0.04353 
0.04353 
0.16590 
0.16590 
0.10927 
0.10927 
0.17265 
0.17265 
0.12899 
0.12899 
0.10473 
0.10473 
0.06471 
0.06471 
0.11553 
0.11553 
0.18507 
0.18507 
0.06928 
0.06928 
0.05351 
0.05351 
0.16989 
0.16989 
0.06067 
0.06067 
0.10262 
0.10262 
0.15604 
0.15604 
0.12624 
0.12624 
0.14120 
0.14120 
0.09132 
0.09132 
0.11127 
0.11127 
0.19288 
0.19288 
0.10254 
0.10254 
0.13338 
0.13338 
0.05942 
0.05942 
0.13851 
0.13851 
0.06022 
0.06022 
0.17839 
0.17839 
0.11369 
0.11369 
0.13882 
0.13882 
0.04630 
0.04630 
0.11042 
0.11042 
0.13428 
0.13428 
0.17135 
0.17135 
0.13089 
0.13089 
0.11496 
0.11496 
0.16507 
0.16507 
0.14115 
0.14115 
0.15115 
0.15115 
0.07447 
0.07447 
0.15287 
0.15287 
0.11533 
0.11533 
0.11380 
0.11380 
0.09950 
0.09950 
0.08615 
0.08615 
0.12597 
0.12597 
0.13602 
0.13602 
0.15590 
0.15590 
0.19210 
0.19210 
0.10693 
0.10693 
0.17098 
0.17098 
0.11738 
0.11738 
0.15968 
0.15968 
0.10753 
0.10753 
0.17025 
0.17025 
0.13198 
0.13198 
0.09432 
0.09432 
0.14559 
0.14559 
0.13731 
0.13731 
0.17375 
0.17375 
0.14065 
0.14065 
0.21670 
0.21670 
0.11723 
0.11723 
0.07012 
0.07012 
0.12599 
0.12599 
0.07383 
0.07383 
0.14860 
0.14860 
0.06961 
0.06961 
0.11786 
0.11786 
0.16710 
0.16710 
0.13188 
0.13188 
0.07067 
0.07067 
0.14040 
0.14040 
0.08301 
0.08301 
0.09822 
0.09822 
0.02573 
0.02573 
0.09683 
0.09683 
0.12046 
0.12046 
0.14083 
0.14083 
0.22887 
0.22887 
0.11428 
0.11428 
0.07860 
0.07860 
0.11389 
0.11389 
0.14847 
0.14847 
0.09212 
0.09212 
0.06044 
0.06044 
0.22025 
0.22025 
0.17333 
0.17333 
0.13867 
0.13867 
0.14608 
0.14608 
0.25103 
0.25103 
0.11917 
0.11917 
0.22309 
0.22309 
0.16369 
0.16369 
0.04988 
0.04988 
0.18635 
0.18635 
0.10185 
0.10185 
0.15623 
0.15623 
0.09815 
0.09815 
0.09840 
0.09840 
0.16039 
0.16039 
0.05917 
0.05917 
0.14481 
0.14481 
0.05993 
0.05993 
0.14079 
0.14079 
0.09157 
0.09157 
0.12204 
0.12204 
0.21367 
0.21367 
0.20366 
0.20366 
0.07195 
0.07195 
0.08056 
0.08056 
0.08090 
0.08090 
0.08145 
0.08145 
0.21572 
0.21572 
0.16495 
0.16495 
0.10203 
0.10203 
0.12176 
0.12176 
0.16968 
0.16968 
0.18790 
0.18790 
0.03231 
0.03231 
0.03554 
0.03554 
0.06075 
0.06075 
0.09594 
0.09594 
0.11076 
0.11076 
0.16326 
0.16326 
0.11455 
0.11455 
0.01880 
0.01880 
0.20556 
0.20556 
0.06810 
0.06810 
0.08141 
0.08141 
0.04634 
0.04634 
0.15982 
0.15982 
0.12135 
0.12135 
0.13361 
0.13361 
0.08761 
0.08761 
0.13380 
0.13380 
0.06791 
0.06791 
0.14448 
0.14448 
0.04743 
0.04743 
0.11741 
0.11741 
0.14078 
0.14078 
0.12318 
0.12318 
0.19835 
0.19835 
0.15537 
0.15537 
0.19327 
0.19327 
0.25279 
0.25279 
0.20476 
0.20476 
0.14745 
0.14745 
0.15365 
0.15365 
0.13708 
0.13708 
0.18041 
0.18041 
0.10126 
0.10126 
0.18157 
0.18157 
0.18969 
0.18969 
0.15141 
0.15141 
0.09324 
0.09324 
0.17136 
0.17136 
0.10610 
0.10610 
0.13735 
0.13735 
0.17751 
0.17751 
0.10072 
0.10072 
0.07860 
0.07860 
0.10262 
0.10262 
0.15560 
0.15560 
0.07310 
0.07310 
0.09657 
0.09657 
0.13940 
0.13940 
0.09500 
0.09500 
0.09301 
0.09301 
0.16487 
0.16487 
0.22321 
0.22321 
0.15998 
0.15998 
0.11395 
0.11395 
0.04310 
0.04310 
0.09279 
0.09279 
0.09676 
0.09676 
0.12186 
0.12186 
0.09689 
0.09689 
0.10832 
0.10832 
0.08685 
0.08685 
0.12084 
0.12084 
0.20912 
0.20912 
0.11774 
0.11774 
0.12478 
0.12478 
0.12020 
0.12020 
0.10911 
0.10911 
0.20150 
0.20150 
SCALARS Umean_X double 1 
LOOKUP_TABLE default
0.03650 
0.03650 
0.04150 
0.04150 
0.02350 
0.02350 
-0.04650 
-0.04650 
0.05050 
0.05050 
0.04700 
0.04700 
-0.01950 
-0.01950 
-0.04100 
-0.04100 
0.01100 
0.01100 
-0.04850 
-0.04850 
-0.03900 
-0.03900 
0.04200 
0.04200 
0.07350 
0.07350 
0.03500 
0.03500 
0.01400 
0.01400 
0.10650 
0.10650 
0.01950 
0.01950 
0.00450 
0.00450 
0.02000 
0.02000 
0.02450 
0.02450 
0.03900 
0.03900 
0.04350 
0.04350 
0.06300 
0.06300 
0.00700 
0.00700 
0.00550 
0.00550 
-0.06550 
-0.06550 
0.07000 
0.07000 
-0.09350 
-0.09350 
-0.04200 
-0.04200 
0.04050 
0.04050 
-0.03850 
-0.03850 
0.01750 
0.01750 
-0.01750 
-0.01750 
0.10600 
0.10600 
0.00150 
0.00150 
0.02500 
0.02500 
0.07950 
0.07950 
0.05800 
0.05800 
0.01950 
0.01950 
0.02550 
0.02550 
0.00400 
0.00400 
-0.01000 
-0.01000 
-0.01900 
-0.01900 
0.02150 
0.02150 
0.05100 
0.05100 
0.01850 
0.01850 
-0.01750 
-0.01750 
0.03050 
0.03050 
0.01750 
0.01750 
-0.08500 
-0.08500 
-0.02250 
-0.02250 
-0.04550 
-0.04550 
0.03600 
0.03600 
-0.00450 
-0.00450 
-0.03150 
-0.03150 
0.00700 
0.00700 
0.03050 
0.03050 
0.10300 
0.10300 
-0.00300 
-0.00300 
-0.08250 
-0.08250 
-0.03900 
-0.03900 
0.05550 
0.05550 
0.01700 
0.01700 
-0.10100 
-0.10100 
0.00100 
0.00100 
0.03500 
0.03500 
0.06300 
0.06300 
0.03100 
0.03100 
-0.04700 
-0.04700 
-0.10150 
-0.10150 
0.01700 
0.01700 
-0.02250 
-0.02250 
0.00450 
0.00450 
0.02050 
0.02050 
0.05900 
0.05900 
0.01050 
0.01050 
0.11650 
0.11650 
0.04900 
0.04900 
-0.01000 
-0.01000 
0.06050 
0.06050 
0.06150 
0.06150 
-0.02650 
-0.02650 
0.14150 
0.14150 
-0.00350 
-0.00350 
-0.04600 
-0.04600 
0.06950 
0.06950 
-0.04200 
-0.04200 
0.04700 
0.04700 
0.02400 
0.02400 
0.07500 
0.07500 
0.12400 
0.12400 
0.06600 
0.06600 
0.06700 
0.06700 
0.05550 
0.05550 
0.03350 
0.03350 
-0.00200 
-0.00200 
-0.01800 
-0.01800 
0.05800 
0.05800 
0.02300 
0.02300 
0.05200 
0.05200 
0.05650 
0.05650 
0.09050 
0.09050 
0.02750 
0.02750 
0.04950 
0.04950 
-0.05250 
-0.05250 
-0.00300 
-0.00300 
0.06900 
0.06900 
0.04700 
0.04700 
0.02900 
0.02900 
-0.12700 
-0.12700 
0.04150 
0.04150 
0.02950 
0.02950 
0.08500 
0.08500 
0.00650 
0.00650 
0.07550 
0.07550 
0.00850 
0.00850 
0.06350 
0.06350 
0.07350 
0.07350 
0.03500 
0.03500 
0.01950 
0.01950 
-0.02150 
-0.02150 
0.02350 
0.02350 
0.12500 
0.12500 
0.06300 
0.06300 
-0.10750 
-0.10750 
0.03150 
0.03150 
0.08800 
0.08800 
0.03050 
0.03050 
0.05600 
0.05600 
-0.00350 
-0.00350 
0.06600 
0.06600 
0.01800 
0.01800 
-0.05950 
-0.05950 
0.08750 
0.08750 
0.07000 
0.07000 
0.08400 
0.08400 
0.06650 
0.06650 
0.07750 
0.07750 
0.01950 
0.01950 
-0.03450 
-0.03450 
0.02950 
0.02950 
0.07250 
0.07250 
0.07750 
0.07750 
0.09300 
0.09300 
-0.06400 
-0.06400 
0.03400 
0.03400 
0.03800 
0.03800 
0.02450 
0.02450 
0.06600 
0.06600 
0.04650 
0.04650 
-0.04400 
-0.04400 
0.11350 
0.11350 
-0.00550 
-0.00550 
0.02150 
0.02150 
0.02650 
0.02650 
0.00400 
0.00400 
0.04600 
0.04600 
-0.04300 
-0.04300 
-0.02900 
-0.02900 
0.09050 
0.09050 
0.06750 
0.06750 
0.01850 
0.01850 
0.01300 
0.01300 
-0.01500 
-0.01500 
0.03450 
0.03450 
0.00650 
0.00650 
0.09500 
0.09500 
0.04750 
0.04750 
0.12400 
0.12400 
0.06100 
0.06100 
0.04500 
0.04500 
0.10700 
0.10700 
0.07400 
0.07400 
0.05650 
0.05650 
-0.01750 
-0.01750 
-0.02600 
-0.02600 
0.07500 
0.07500 
-0.00150 
-0.00150 
0.05000 
0.05000 
0.13150 
0.13150 
0.10650 
0.10650 
0.12800 
0.12800 
0.04050 
0.04050 
-0.01700 
-0.01700 
-0.01550 
-0.01550 
-0.05900 
-0.05900 
0.01600 
0.01600 
-0.00100 
-0.00100 
0.07300 
0.07300 
0.05950 
0.05950 
0.09300 
0.09300 
0.04400 
0.04400 
0.09450 
0.09450 
0.02750 
0.02750 
0.04100 
0.04100 
-0.10250 
-0.10250 
0.12800 
0.12800 
0.12800 
0.12800 
0.06050 
0.06050 
0.02700 
0.02700 
0.01400 
0.01400 
0.00500 
0.00500 
0.02400 
0.02400 
0.00650 
0.00650 
0.02300 
0.02300 
0.17950 
0.17950 
-0.02600 
-0.02600 
-0.03550 
-0.03550 
0.11000 
0.11000 
-0.03150 
-0.03150 
0.06150 
0.06150 
0.04550 
0.04550 
-0.04400 
-0.04400 
-0.01650 
-0.01650 
0.12500 
0.12500 
-0.01100 
-0.01100 
0.04400 
0.04400 
0.03800 
0.03800 
0.04150 
0.04150 
0.03550 
0.03550 
0.03150 
0.03150 
0.01900 
0.01900 
0.00150 
0.00150 
0.01250 
0.01250 
0.10600 
0.10600 
-0.01500 
-0.01500 
0.01400 
0.01400 
-0.00100 
-0.00100 
0.10900 
0.10900 
0.05700 
0.05700 
-0.02500 
-0.02500 
0.01000 
0.01000 
0.01800 
0.01800 
0.03100 
0.03100 
0.09550 
0.09550 
-0.01850 
-0.01850 
-0.00800 
-0.00800 
0.05900 
0.05900 
0.03850 
0.03850 
0.08450 
0.08450 
0.06300 
0.06300 
0.09150 
0.09150 
0.02050 
0.02050 
-0.03100 
-0.03100 
0.00700 
0.00700 
0.03350 
0.03350 
0.07950 
0.07950 
0.03500 
0.03500 
0.02950 
0.02950 
-0.03300 
-0.03300 
-0.03750 
-0.03750 
0.01800 
0.01800 
0.06450 
0.06450 
0.08850 
0.08850 
0.06700 
0.06700 
0.04600 
0.04600 
0.03750 
0.03750 
0.00500 
0.00500 
0.15300 
0.15300 
0.11000 
0.11000 
-0.10850 
-0.10850 
-0.03050 
-0.03050 
0.06600 
0.06600 
0.01550 
0.01550 
0.02200 
0.02200 
0.05350 
0.05350 
-0.12450 
-0.12450 
0.03850 
0.03850 
-0.07700 
-0.07700 
-0.03650 
-0.03650 
-0.03550 
-0.03550 
0.05300 
0.05300 
0.02100 
0.02100 
-0.03350 
-0.03350 
-0.02900 
-0.02900 
0.00950 
0.00950 
0.04400 
0.04400 
-0.04350 
-0.04350 
-0.03850 
-0.03850 
0.07000 
0.07000 
-0.06200 
-0.06200 
0.02400 
0.02400 
0.04750 
0.04750 
-0.00950 
-0.00950 
0.01250 
0.01250 
0.02000 
0.02000 
0.00900 
0.00900 
0.12350 
0.12350 
-0.03600 
-0.03600 
-0.03350 
-0.03350 
-0.06450 
-0.06450 
0.11100 
0.11100 
0.06150 
0.06150 
-0.01600 
-0.01600 
0.06350 
0.06350 
0.02500 
0.02500 
0.02950 
0.02950 
0.12750 
0.12750 
0.00800 
0.00800 
0.03050 
0.03050 
0.07750 
0.07750 
-0.01100 
-0.01100 
0.00650 
0.00650 
-0.01000 
-0.01000 
-0.03950 
-0.03950 
-0.02250 
-0.02250 
0.04400 
0.04400 
0.05400 
0.05400 
-0.02100 
-0.02100 
0.01600 
0.01600 
0.01300 
0.01300 
0.05450 
0.05450 
0.10100 
0.10100 
-0.03750 
-0.03750 
0.02650 
0.02650 
0.00400 
0.00400 
0.01800 
0.01800 
0.07200 
0.07200 
-0.00600 
-0.00600 
0.03700 
0.03700 
0.07650 
0.07650 
-0.07500 
-0.07500 
-0.01550 
-0.01550 
0.06200 
0.06200 
0.07300 
0.07300 
-0.10850 
-0.10850 
0.08500 
0.08500 
-0.03650 
-0.03650 
0.02000 
0.02000 
-0.00100 
-0.00100 
0.03900 
0.03900 
0.06550 
0.06550 
0.02350 
0.02350 
0.04750 
0.04750 
0.02750 
0.02750 
0.05400 
0.05400 
0.12500 
0.12500 
-0.01950 
-0.01950 
-0.00200 
-0.00200 
0.09550 
0.09550 
0.01100 
0.01100 
0.03700 
0.03700 
0.04050 
0.04050 
-0.02700 
-0.02700 
0.00150 
0.00150 
0.04000 
0.04000 
0.04450 
0.04450 
0.04000 
0.04000 
-0.01200 
-0.01200 
0.04550 
0.04550 
-0.02600 
-0.02600 
0.08100 
0.08100 
0.04150 
0.04150 
0.09550 
0.09550 
0.06200 
0.06200 
0.06300 
0.06300 
-0.00850 
-0.00850 
0.03300 
0.03300 
-0.00250 
-0.00250 
0.04650 
0.04650 
0.00850 
0.00850 
0.04050 
0.04050 
0.04750 
0.04750 
0.01450 
0.01450 
0.05800 
0.05800 
0.05500 
0.05500 
0.06900 
0.06900 
-0.11050 
-0.11050 
-0.01750 
-0.01750 
0.08700 
0.08700 
0.06050 
0.06050 
0.05350 
0.05350 
0.01750 
0.01750 
0.04450 
0.04450 
0.05650 
0.05650 
-0.00250 
-0.00250 
0.10250 
0.10250 
0.05600 
0.05600 
0.07600 
0.07600 
0.06150 
0.06150 
0.11350 
0.11350 
0.07750 
0.07750 
0.04400 
0.04400 
0.00300 
0.00300 
0.00550 
0.00550 
0.10750 
0.10750 
0.13250 
0.13250 
0.06150 
0.06150 
-0.00300 
-0.00300 
0.06750 
0.06750 
-0.00900 
-0.00900 
0.06200 
0.06200 
-0.04200 
-0.04200 
-0.03950 
-0.03950 
-0.10950 
-0.10950 
0.06450 
0.06450 
0.03600 
0.03600 
0.05650 
0.05650 
0.06650 
0.06650 
0.01450 
0.01450 
-0.00450 
-0.00450 
0.01000 
0.01000 
-0.06300 
-0.06300 
0.05800 
0.05800 
-0.01650 
-0.01650 
0.00300 
0.00300 
-0.02700 
-0.02700 
-0.00400 
-0.00400 
0.02250 
0.02250 
0.00400 
0.00400 
0.03600 
0.03600 
-0.01650 
-0.01650 
0.10000 
0.10000 
-0.02350 
-0.02350 
0.03700 
0.03700 
-0.09300 
-0.09300 
0.17850 
0.17850 
0.00650 
0.00650 
0.09800 
0.09800 
-0.04150 
-0.04150 
0.03650 
0.03650 
0.13400 
0.13400 
-0.00050 
-0.00050 
-0.05400 
-0.05400 
0.01700 
0.01700 
-0.01400 
-0.01400 
0.07500 
0.07500 
0.00700 
0.00700 
-0.00300 
-0.00300 
-0.03950 
-0.03950 
0.05550 
0.05550 
0.06950 
0.06950 
0.07300 
0.07300 
0.06400 
0.06400 
-0.01350 
-0.01350 
0.06850 
0.06850 
0.02600 
0.02600 
0.07500 
0.07500 
0.07950 
0.07950 
0.08050 
0.08050 
0.01850 
0.01850 
-0.05250 
-0.05250 
0.09100 
0.09100 
0.08850 
0.08850 
0.09500 
0.09500 
-0.00600 
-0.00600 
0.00550 
0.00550 
0.02700 
0.02700 
0.04150 
0.04150 
-0.04950 
-0.04950 
-0.02500 
-0.02500 
0.06350 
0.06350 
0.01350 
0.01350 
-0.09750 
-0.09750 
-0.01200 
-0.01200 
-0.01750 
-0.01750 
0.01050 
0.01050 
0.04600 
0.04600 
0.09500 
0.09500 
0.08100 
0.08100 
-0.03000 
-0.03000 
0.06300 
0.06300 
0.00700 
0.00700 
0.02150 
0.02150 
-0.02000 
-0.02000 
-0.04950 
-0.04950 
-0.06200 
-0.06200 
0.08450 
0.08450 
0.07650 
0.07650 
0.04450 
0.04450 
-0.00200 
-0.00200 
0.14700 
0.14700 
0.12050 
0.12050 
0.09700 
0.09700 
0.10550 
0.10550 
0.01400 
0.01400 
0.11500 
0.11500 
0.08850 
0.08850 
0.09500 
0.09500 
0.11200 
0.11200 
0.09250 
0.09250 
0.05150 
0.05150 
0.01750 
0.01750 
0.01100 
0.01100 
0.07300 
0.07300 
0.06350 
0.06350 
0.04600 
0.04600 
0.04300 
0.04300 
0.02100 
0.02100 
-0.12750 
-0.12750 
0.04300 
0.04300 
-0.08450 
-0.08450 
0.06300 
0.06300 
0.06050 
0.06050 
-0.01650 
-0.01650 
0.08050 
0.08050 
0.10800 
0.10800 
0.06750 
0.06750 
-0.06350 
-0.06350 
-0.03450 
-0.03450 
-0.03300 
-0.03300 
-0.01650 
-0.01650 
0.03250 
0.03250 
-0.00250 
-0.00250 
-0.03950 
-0.03950 
-0.06050 
-0.06050 
0.02650 
0.02650 
0.07950 
0.07950 
0.08650 
0.08650 
0.02100 
0.02100 
0.06650 
0.06650 
0.05650 
0.05650 
-0.11300 
-0.11300 
SCALARS Umean_Y double 1 
LOOKUP_TABLE default
0.03200 
0.03200 
0.02600 
0.02600 
0.08450 
0.08450 
0.08000 
0.08000 
0.14100 
0.14100 
0.09850 
0.09850 
0.07000 
0.07000 
0.07950 
0.07950 
0.09550 
0.09550 
0.00350 
0.00350 
0.09200 
0.09200 
0.07350 
0.07350 
0.11350 
0.11350 
0.12400 
0.12400 
0.05150 
0.05150 
0.09800 
0.09800 
0.14700 
0.14700 
0.14050 
0.14050 
0.10000 
0.10000 
0.06400 
0.06400 
0.06550 
0.06550 
0.13450 
0.13450 
0.01800 
0.01800 
0.09150 
0.09150 
0.03150 
0.03150 
0.07100 
0.07100 
0.18800 
0.18800 
0.02050 
0.02050 
0.06550 
0.06550 
0.15050 
0.15050 
0.06400 
0.06400 
0.10300 
0.10300 
0.06800 
0.06800 
0.04300 
0.04300 
0.07550 
0.07550 
0.10200 
0.10200 
0.12300 
0.12300 
0.03850 
0.03850 
0.07300 
0.07300 
0.19800 
0.19800 
0.06150 
0.06150 
0.14600 
0.14600 
0.13550 
0.13550 
0.09950 
0.09950 
0.04850 
0.04850 
0.10000 
0.10000 
0.11150 
0.11150 
0.13150 
0.13150 
0.10350 
0.10350 
0.01250 
0.01250 
0.08450 
0.08450 
0.05250 
0.05250 
0.14200 
0.14200 
0.03150 
0.03150 
0.07450 
0.07450 
0.10150 
0.10150 
0.08150 
0.08150 
0.16250 
0.16250 
0.05150 
0.05150 
0.05250 