# vtk DataFile Version 2.1 
Trajects from timestep 136 with color option 
ASCII 
 
DATASET POLYDATA POINTS 1000 float 
3.484 7.321 -68.914 
3.482 7.444 -68.992 
-0.649 7.505 -71.386 
-0.640 7.652 -71.448 
1.272 12.334 -71.909 
1.219 12.521 -71.920 
3.182 1.423 -70.394 
3.302 1.640 -70.627 
-13.006 1.367 -73.657 
-13.018 1.670 -73.712 
11.150 5.754 -71.621 
11.378 5.904 -71.831 
-10.690 4.650 -71.370 
-10.560 5.042 -71.534 
3.650 -1.321 -70.276 
3.929 -1.177 -70.615 
0.364 10.908 -67.691 
0.347 11.067 -67.648 
-10.554 -0.227 -78.051 
-10.562 -0.047 -78.410 
5.541 12.142 -70.016 
5.406 12.145 -70.157 
4.641 5.468 -70.994 
4.807 5.687 -71.170 
0.102 -2.073 -69.358 
0.204 -1.898 -69.780 
-3.261 4.596 -67.372 
-3.286 4.746 -67.336 
-4.661 -4.860 -68.699 
-4.379 -4.712 -68.955 
1.633 -0.564 -70.054 
1.737 -0.341 -70.225 
5.786 11.025 -69.913 
5.727 11.109 -69.919 
4.081 3.604 -68.106 
4.238 3.648 -68.269 
-3.415 9.646 -67.137 
-3.458 9.836 -67.018 
-3.352 -10.086 -68.661 
-3.216 -9.953 -68.823 
-6.473 1.746 -74.195 
-6.471 1.970 -74.274 
4.535 7.636 -68.471 
4.521 7.702 -68.539 
-1.998 1.846 -67.013 
-2.026 2.051 -67.238 
-11.303 7.979 -72.267 
-11.154 8.240 -72.428 
-0.285 11.929 -68.118 
-0.345 12.042 -68.054 
1.605 -6.265 -63.997 
2.041 -6.023 -64.488 
-8.390 5.436 -68.166 
-8.434 5.631 -68.287 
-1.659 4.318 -66.723 
-1.592 4.467 -66.799 
-4.408 10.055 -74.064 
-4.378 10.212 -74.106 
1.956 -8.965 -69.638 
2.084 -8.918 -69.777 
-7.076 -12.353 -71.955 
-6.884 -12.318 -72.181 
-10.435 -1.894 -70.920 
-10.290 -1.845 -71.003 
4.770 -9.143 -73.437 
5.042 -9.001 -73.508 
1.134 -2.306 -67.661 
1.309 -2.129 -68.056 
1.597 12.692 -68.146 
1.537 12.769 -67.980 
-7.103 -3.632 -69.086 
-6.874 -3.395 -69.289 
10.300 -7.114 -72.873 
10.363 -7.109 -73.187 
3.875 -2.084 -69.171 
4.095 -2.007 -69.398 
4.365 -4.481 -70.021 
4.591 -4.462 -70.455 
-9.088 12.814 -66.477 
-9.141 13.074 -66.319 
0.557 7.513 -70.264 
0.610 7.735 -70.379 
-2.956 12.121 -65.837 
-2.912 12.237 -65.692 
2.368 -4.386 -60.842 
2.571 -4.241 -61.370 
-0.083 6.621 -65.475 
-0.188 6.689 -65.558 
-0.037 9.429 -70.908 
-0.046 9.606 -70.878 
-4.022 0.903 -71.990 
-3.822 1.198 -72.342 
1.398 11.092 -66.873 
1.343 11.231 -66.780 
5.843 10.540 -66.146 
5.839 10.754 -66.034 
0.861 -5.340 -69.555 
1.007 -5.347 -69.620 
-4.460 9.782 -72.617 
-4.390 9.952 -72.641 
9.345 -2.999 -69.527 
9.725 -2.761 -69.783 
-15.075 -5.606 -75.488 
-14.993 -5.486 -75.531 
13.020 -1.530 -68.455 
13.165 -1.244 -68.718 
-7.122 -6.125 -69.874 
-7.027 -5.921 -69.985 
-9.558 7.412 -74.351 
-9.620 7.646 -74.540 
-7.893 8.132 -75.675 
-7.849 8.250 -75.758 
1.110 0.448 -64.796 
1.245 0.684 -65.271 
-1.694 9.568 -74.059 
-1.662 9.911 -74.079 
-1.655 7.386 -69.564 
-1.593 7.729 -69.520 
-2.776 2.440 -60.982 
-2.564 2.630 -61.241 
-12.319 -9.679 -71.163 
-12.226 -9.636 -71.307 
5.487 3.768 -66.572 
5.582 3.823 -66.725 
1.047 -6.687 -70.302 
1.205 -6.659 -70.353 
8.834 7.342 -67.748 
8.757 7.533 -67.822 
4.755 9.399 -69.132 
4.802 9.561 -69.086 
11.423 6.965 -71.706 
11.639 7.027 -71.905 
-5.287 8.676 -65.657 
-5.258 8.856 -65.620 
1.580 1.207 -63.188 
1.754 1.491 -63.639 
-5.844 12.916 -67.179 
-5.853 13.023 -67.026 
-5.229 3.169 -77.064 
-5.086 3.280 -77.225 
5.495 8.379 -66.528 
5.538 8.551 -66.564 
-9.992 0.135 -69.454 
-9.867 0.419 -69.803 
-2.523 -6.539 -70.864 
-2.277 -6.514 -71.131 
-6.725 -0.299 -70.077 
-6.510 -0.149 -70.453 
-15.096 -3.534 -75.803 
-14.935 -3.504 -75.953 
-7.360 -3.475 -63.445 
-7.206 -3.198 -64.002 
3.423 -0.037 -63.731 
3.696 0.271 -64.272 
7.405 7.029 -67.569 
7.352 7.114 -67.669 
5.647 11.341 -64.608 
5.652 11.476 -64.538 
-0.896 9.590 -65.825 
-0.892 9.864 -65.798 
3.950 2.547 -67.066 
4.027 2.644 -67.398 
2.120 6.918 -74.539 
2.191 7.098 -74.705 
10.521 -11.225 -66.272 
10.600 -11.217 -66.566 
-11.725 -8.143 -68.960 
-11.756 -8.078 -69.228 
1.056 2.776 -67.080 
1.061 2.873 -67.436 
-12.422 9.421 -69.418 
-12.386 9.703 -69.420 
-2.361 7.431 -73.094 
-2.232 7.669 -73.314 
-9.647 0.641 -64.962 
-9.541 0.870 -65.271 
10.816 7.007 -69.222 
10.880 7.144 -69.355 
12.151 5.667 -68.583 
12.259 5.795 -68.726 
1.684 4.278 -64.158 
1.787 4.515 -64.286 
14.274 -2.004 -67.108 
14.399 -1.706 -67.214 
5.846 9.989 -66.130 
5.799 10.149 -66.084 
-5.059 7.963 -63.423 
-5.181 8.207 -63.398 
12.498 1.400 -67.820 
12.522 1.607 -67.832 
5.750 8.858 -63.667 
5.675 9.014 -63.599 
4.303 10.572 -64.122 
4.234 10.738 -64.045 
-10.666 2.973 -67.102 
-10.624 3.146 -67.487 
12.133 -1.632 -71.167 
12.161 -1.546 -71.348 
0.088 -1.668 -66.650 
0.226 -1.479 -67.133 
-8.180 0.015 -70.486 
-7.986 0.271 -70.894 
3.089 4.214 -69.913 
3.253 4.590 -69.958 
-1.480 -4.073 -68.637 
-1.264 -4.028 -68.849 
-2.524 -3.307 -68.069 
-2.273 -3.267 -68.271 
-9.886 -1.828 -65.839 
-9.668 -1.481 -66.103 
-12.728 -5.611 -71.264 
-12.722 -5.418 -71.405 
-5.418 2.246 -69.457 
-5.349 2.675 -69.928 
-7.620 6.682 -76.885 
-7.566 6.855 -77.015 
2.022 -2.951 -71.378 
2.216 -2.812 -71.561 
1.594 4.202 -61.767 
1.892 4.558 -61.881 
-9.090 -11.247 -70.579 
-8.932 -11.252 -70.673 
1.636 -9.390 -66.601 
1.819 -9.494 -66.880 
-3.741 -9.254 -64.414 
-3.614 -9.154 -64.551 
12.787 12.102 -69.891 
13.031 11.955 -69.937 
-4.981 -12.716 -68.640 
-4.823 -12.672 -68.745 
-12.265 0.145 -74.230 
-12.178 0.386 -74.230 
-9.609 -7.918 -69.263 
-9.530 -7.836 -69.672 
-6.809 4.542 -76.087 
-6.731 4.648 -76.191 
-10.415 -5.725 -74.855 
-10.304 -5.617 -74.910 
-8.648 8.330 -62.551 
-8.712 8.531 -62.649 
-9.341 -8.549 -66.183 
-9.239 -8.368 -66.528 
-12.358 5.454 -65.194 
-12.360 5.531 -65.377 
1.823 -2.886 -61.224 
2.012 -2.717 -61.619 
-10.787 -9.836 -68.676 
-10.772 -9.713 -69.020 
9.316 8.685 -75.916 
9.495 8.842 -76.144 
-7.638 5.486 -66.975 
-7.629 5.654 -67.096 
-0.737 9.178 -69.663 
-0.761 9.482 -69.707 
-5.209 2.125 -64.188 
-5.018 2.325 -64.502 
-8.041 4.346 -65.956 
-8.054 4.418 -66.180 
-5.296 10.669 -72.357 
-5.266 10.846 -72.325 
-11.432 7.462 -66.149 
-11.347 7.618 -66.130 
10.800 7.324 -64.532 
10.897 7.496 -64.639 
9.705 8.597 -66.635 
9.766 8.693 -66.696 
-1.937 -8.863 -66.218 
-1.794 -8.738 -66.346 
-6.504 3.228 -62.887 
-6.367 3.357 -63.155 
4.236 -10.104 -66.806 
4.512 -10.089 -66.854 
-8.734 -5.788 -71.577 
-8.731 -5.619 -71.693 
-1.447 -3.441 -67.693 
-1.081 -3.266 -67.921 
14.458 3.214 -73.154 
14.499 3.282 -73.227 
-5.624 -4.814 -70.027 
-5.430 -4.631 -70.206 
10.779 -10.916 -70.170 
10.832 -10.823 -70.546 
-11.908 2.611 -73.644 
-11.829 2.852 -73.760 
2.859 -10.244 -69.565 
3.033 -10.198 -69.682 
-10.353 10.320 -73.137 
-10.487 10.686 -73.279 
-4.347 -10.873 -68.607 
-4.207 -10.720 -68.725 
0.706 -11.396 -62.243 
0.957 -11.480 -62.364 
4.847 6.420 -66.446 
4.893 6.578 -66.450 
2.230 -3.295 -68.093 
2.458 -3.122 -68.454 
9.870 1.458 -67.978 
9.984 1.730 -68.126 
-12.346 7.508 -68.374 
-12.215 7.801 -68.393 
-1.746 -0.438 -60.739 
-1.674 -0.271 -61.144 
6.812 -12.275 -68.618 
7.015 -12.221 -68.748 
-13.576 11.771 -70.090 
-13.676 12.196 -70.070 
9.171 -10.385 -68.306 
9.390 -10.442 -68.384 
15.673 1.469 -68.881 
15.635 1.522 -68.926 
8.850 -4.737 -65.257 
9.136 -4.651 -65.381 
-1.137 -0.843 -60.638 
-0.972 -0.720 -60.942 
7.727 8.575 -70.101 
7.831 8.703 -70.202 
-3.525 -8.763 -68.960 
-3.439 -8.606 -69.060 
-4.945 -6.050 -68.574 
-4.642 -5.863 -68.764 
16.887 4.056 -69.082 
16.944 4.178 -69.182 
14.058 -6.719 -69.825 
14.058 -6.687 -69.921 
-5.125 5.840 -64.121 
-5.086 5.947 -64.071 
5.900 -2.401 -69.989 
6.246 -2.245 -70.193 
-10.331 -9.074 -70.576 
-10.307 -9.008 -70.718 
16.994 7.178 -65.976 
16.944 7.374 -66.045 
-0.133 6.016 -67.755 
-0.125 6.161 -67.953 
-7.647 -8.000 -67.634 
-7.444 -7.849 -68.042 
-8.872 3.054 -74.857 
-8.818 3.309 -74.970 
-9.635 2.011 -67.164 
-9.532 2.272 -67.599 
5.102 -0.994 -61.973 
5.317 -0.817 -62.418 
5.231 -6.437 -65.655 
5.428 -6.422 -66.029 
3.580 7.609 -61.973 
3.602 7.783 -61.868 
-7.475 -9.505 -67.720 
-7.362 -9.361 -68.050 
-13.134 10.913 -72.635 
-13.080 11.053 -72.634 
-6.346 -0.113 -59.303 
-6.046 0.043 -59.657 
6.130 1.364 -68.525 
6.322 1.470 -69.002 
14.976 6.901 -68.104 
15.211 6.935 -68.246 
-5.993 10.822 -76.100 
-5.975 10.999 -76.187 
-2.516 -6.729 -65.039 
-2.364 -6.519 -65.341 
3.257 -12.070 -65.204 
3.432 -12.019 -65.182 
8.653 -6.374 -71.083 
8.951 -6.241 -71.441 
13.765 4.870 -67.166 
13.765 5.103 -67.227 
-2.910 -7.379 -71.258 
-2.904 -7.282 -71.455 
-11.951 -2.620 -75.998 
-11.951 -2.390 -76.223 
11.697 4.428 -75.580 
11.796 4.529 -75.791 
-12.791 11.537 -63.346 
-12.949 11.797 -63.463 
-7.794 -0.712 -67.188 
-7.728 -0.546 -67.562 
-2.894 -1.442 -74.500 
-2.785 -1.248 -74.612 
6.556 -7.506 -67.735 
6.750 -7.478 -67.836 
-13.921 0.252 -69.155 
-13.826 0.432 -69.497 
3.148 11.361 -64.816 
3.147 11.535 -64.730 
-4.271 3.404 -62.010 
-4.175 3.510 -62.274 
8.844 -1.719 -66.765 
8.868 -1.458 -66.966 
-2.718 4.206 -71.229 
-2.496 4.508 -71.426 
2.820 12.202 -73.458 
2.587 12.290 -73.622 
-8.699 12.117 -69.202 
-8.780 12.297 -68.995 
12.676 -1.966 -65.866 
12.693 -1.832 -65.967 
-13.401 -8.383 -69.215 
-13.434 -8.234 -69.359 
1.454 2.632 -67.653 
1.460 2.782 -68.047 
6.274 -10.534 -70.526 
6.447 -10.434 -70.654 
8.731 -4.687 -67.244 
8.916 -4.610 -67.418 
7.059 2.746 -73.934 
7.176 2.937 -74.188 
-11.448 7.043 -68.141 
-11.335 7.238 -68.221 
6.950 3.819 -61.984 
7.079 4.013 -62.136 
-2.014 3.161 -68.696 
-1.885 3.438 -68.860 
-7.159 1.545 -66.195 
-7.165 1.545 -66.727 
5.008 -2.145 -67.187 
5.395 -2.098 -67.691 
-1.941 -12.662 -66.122 
-1.787 -12.637 -66.241 
-14.537 6.746 -75.208 
-14.543 6.924 -75.414 
12.521 -0.544 -65.873 
12.579 -0.344 -65.957 
11.785 0.310 -67.862 
11.857 0.457 -67.885 
1.322 -4.959 -77.260 
1.404 -4.831 -77.296 
12.042 1.580 -63.984 
12.089 1.758 -64.053 
1.712 -0.426 -70.859 
1.806 -0.188 -70.983 
3.962 -12.241 -69.017 
4.088 -12.159 -69.056 
12.380 12.496 -70.209 
12.522 12.233 -70.144 
-11.530 13.002 -65.155 
-11.582 13.191 -65.271 
15.275 5.940 -71.571 
15.473 5.855 -71.446 
9.359 3.267 -62.823 
9.534 3.412 -62.873 
4.272 -7.237 -65.365 
[...]
POINT_DATA 1000 
SCALARS Umean double 1 
LOOKUP_TABLE default
0.07283 
0.07283 
0.07990 
0.07990 
0.09734 
0.09734 
0.17013 
0.17013 
0.15409 
0.15409 
0.17218 
0.17218 
0.22218 
0.22218 
0.23103 
0.23103 
0.08279 
0.08279 
0.20084 
0.20084 
0.09762 
0.09762 
0.16317 
0.16317 
0.23405 
0.23405 
0.07814 
0.07814 
0.20431 
0.20431 
0.14982 
0.14982 
0.05141 
0.05141 
0.11528 
0.11528 
0.11414 
0.11414 
0.12493 
0.12493 
0.11877 
0.11877 
0.04790 
0.04790 
0.15283 
0.15283 
0.17047 
0.17047 
0.07153 
0.07153 
0.34991 
0.34991 
0.11684 
0.11684 
0.09009 
0.09009 
0.08263 
0.08263 
0.09736 
0.09736 
0.14930 
0.14930 
0.08706 
0.08706 
0.15747 
0.15747 
0.23344 
0.23344 
0.09629 
0.09629 
0.19353 
0.19353 
0.16015 
0.16015 
0.16268 
0.16268 
0.24484 
0.24484 
0.15441 
0.15441 
0.12779 
0.12779 
0.09542 
0.09542 
0.29198 
0.29198 
0.07506 
0.07506 
0.08987 
0.08987 
0.25046 
0.25046 
0.08803 
0.08803 
0.12078 
0.12078 
0.07998 
0.07998 
0.09270 
0.09270 
0.25816 
0.25816 
0.07578 
0.07578 
0.20736 
0.20736 
0.12546 
0.12546 
0.15356 
0.15356 
0.07541 
0.07541 
0.27365 
0.27365 
0.17253 
0.17253 
0.17566 
0.17566 
0.19244 
0.19244 
0.08837 
0.08837 
0.09415 
0.09415 
0.08419 
0.08419 
0.10941 
0.10941 
0.08742 
0.08742 
0.15008 
0.15008 
0.09302 
0.09302 
0.28033 
0.28033 
0.09346 
0.09346 
0.12113 
0.12113 
0.09046 
0.09046 
0.23350 
0.23350 
0.18195 
0.18195 
0.22918 
0.22918 
0.11104 
0.11104 
0.32043 
0.32043 
0.33988 
0.33988 
0.07077 
0.07077 
0.07608 
0.07608 
0.13768 
0.13768 
0.17717 
0.17717 
0.12747 
0.12747 
0.15227 
0.15227 
0.13875 
0.13875 
0.18451 
0.18451 
0.14215 
0.14215 
0.17442 
0.17442 
0.19947 
0.19947 
0.10069 
0.10069 
0.11011 
0.11011 
0.14419 
0.14419 
0.17005 
0.17005 
0.08649 
0.08649 
0.13697 
0.13697 
0.10437 
0.10437 
0.09299 
0.09299 
0.09778 
0.09778 
0.21208 
0.21208 
0.10117 
0.10117 
0.26835 
0.26835 
0.25963 
0.25963 
0.20634 
0.20634 
0.15299 
0.15299 
0.16233 
0.16233 
0.24374 
0.24374 
0.11955 
0.11955 
0.32041 
0.32041 
0.11152 
0.11152 
0.15037 
0.15037 
0.23903 
0.23903 
0.09196 
0.09196 
0.17475 
0.17475 
0.10595 
0.10595 
0.14427 
0.14427 
0.09737 
0.09737 
0.12811 
0.12811 
0.21228 
0.21228 
0.08387 
0.08387 
0.08217 
0.08217 
0.11630 
0.11630 
0.20136 
0.20136 
0.09927 
0.09927 
0.23468 
0.23468 
0.18282 
0.18282 
0.16483 
0.16483 
0.10362 
0.10362 
0.15405 
0.15405 
0.20921 
0.20921 
0.11782 
0.11782 
0.09118 
0.09118 
0.08933 
0.08933 
0.11230 
0.11230 
0.06453 
0.06453 
0.11452 
0.11452 
0.16373 
0.16373 
0.14027 
0.14027 
0.10250 
0.10250 
0.23268 
0.23268 
0.05393 
0.05393 
0.16060 
0.16060 
0.19547 
0.19547 
0.13944 
0.13944 
0.10733 
0.10733 
0.20741 
0.20741 
0.11930 
0.11930 
0.14551 
0.14551 
0.08230 
0.08230 
0.23034 
0.23034 
0.16499 
0.16499 
0.16076 
0.16076 
0.22198 
0.22198 
0.12352 
0.12352 
0.21853 
0.21853 
0.11968 
0.11968 
0.03962 
0.03962 
0.16168 
0.16168 
0.18356 
0.18356 
0.09670 
0.09670 
0.10252 
0.10252 
0.20179 
0.20179 
0.08386 
0.08386 
0.05060 
0.05060 
0.06219 
0.06219 
0.21545 
0.21545 
0.07921 
0.07921 
0.10686 
0.10686 
0.12277 
0.12277 
0.24004 
0.24004 
0.14205 
0.14205 
0.25882 
0.25882 
0.26248 
0.26248 
0.21149 
0.21149 
0.10221 
0.10221 
0.18868 
0.18868 
0.07503 
0.07503 
0.24477 
0.24477 
0.26250 
0.26250 
0.13833 
0.13833 
0.09902 
0.09902 
0.19900 
0.19900 
0.09180 
0.09180 
0.24221 
0.24221 
0.12043 
0.12043 
0.10983 
0.10983 
0.16088 
0.16088 
0.12701 
0.12701 
0.16298 
0.16298 
0.20724 
0.20724 
0.12456 
0.12456 
0.11025 
0.11025 
0.19899 
0.19899 
0.09705 
0.09705 
0.15012 
0.15012 
0.16515 
0.16515 
0.21172 
0.21172 
0.14910 
0.14910 
0.14301 
0.14301 
0.08433 
0.08433 
0.10491 
0.10491 
0.21082 
0.21082 
0.11865 
0.11865 
0.13269 
0.13269 
0.16933 
0.16933 
0.11958 
0.11958 
0.13909 
0.13909 
0.17340 
0.17340 
0.26602 
0.26602 
0.31859 
0.31859 
0.09811 
0.09811 
0.13616 
0.13616 
0.11227 
0.11227 
0.08265 
0.08265 
0.07811 
0.07811 
0.09830 
0.09830 
0.14218 
0.14218 
0.07765 
0.07765 
0.15294 
0.15294 
0.11389 
0.11389 
0.12455 
0.12455 
0.11635 
0.11635 
0.19630 
0.19630 
0.13325 
0.13325 
0.15991 
0.15991 
0.22019 
0.22019 
0.13132 
0.13132 
0.17553 
0.17553 
0.14501 
0.14501 
0.25508 
0.25508 
0.18970 
0.18970 
0.06399 
0.06399 
0.16907 
0.16907 
0.12381 
0.12381 
0.11957 
0.11957 
0.12509 
0.12509 
0.13948 
0.13948 
0.16035 
0.16035 
0.10461 
0.10461 
0.19973 
0.19973 
0.09766 
0.09766 
0.17974 
0.17974 
0.10093 
0.10093 
0.08396 
0.08396 
0.21880 
0.21880 
0.09397 
0.09397 
0.10990 
0.10990 
0.12677 
0.12677 
0.07237 
0.07237 
0.10378 
0.10378 
0.07987 
0.07987 
0.17087 
0.17087 
0.12923 
0.12923 
0.24923 
0.24923 
0.07315 
0.07315 
0.12454 
0.12454 
0.08646 
0.08646 
0.14954 
0.14954 
0.13719 
0.13719 
0.12443 
0.12443 
0.09041 
0.09041 
0.11564 
0.11564 
0.25757 
0.25757 
0.13760 
0.13760 
0.10328 
0.10328 
0.07617 
0.07617 
0.27070 
0.27070 
0.11098 
0.11098 
0.12597 
0.12597 
0.09257 
0.09257 
0.11342 
0.11342 
0.15323 
0.15323 
0.24258 
0.24258 
0.11551 
0.11551 
0.11086 
0.11086 
0.10910 
0.10910 
0.31432 
0.31432 
0.14943 
0.14943 
0.07510 
0.07510 
0.09369 
0.09369 
0.07566 
0.07566 
0.05163 
0.05163 
0.17093 
0.17093 
0.14276 
0.14276 
0.14863 
0.14863 
0.17891 
0.17891 
0.12604 
0.12604 
0.09666 
0.09666 
0.04019 
0.04019 
0.20449 
0.20449 
0.05918 
0.05918 
0.11882 
0.11882 
0.15502 
0.15502 
0.12745 
0.12745 
0.09853 
0.09853 
0.11355 
0.11355 
0.11931 
0.11931 
0.26383 
0.26383 
0.07663 
0.07663 
0.09236 
0.09236 
0.09774 
0.09774 
0.19920 
0.19920 
0.19262 
0.19262 
0.13136 
0.13136 
0.19806 
0.19806 
0.14404 
0.14404 
0.13777 
0.13777 
0.14738 
0.14738 
0.11405 
0.11405 
0.07160 
0.07160 
0.13422 
0.13422 
0.12536 
0.12536 
0.07302 
0.07302 
0.21149 
0.21149 
0.18260 
0.18260 
0.13936 
0.13936 
0.07358 
0.07358 
0.29982 
0.29982 
0.19381 
0.19381 
0.15413 
0.15413 
0.07600 
0.07600 
0.17985 
0.17985 
0.20701 
0.20701 
0.22864 
0.22864 
0.18918 
0.18918 
0.17839 
0.17839 
0.20324 
0.20324 
0.09864 
0.09864 
0.09028 
0.09028 
0.12727 
0.12727 
0.14010 
0.14010 
0.11979 
0.11979 
0.10925 
0.10925 
0.15446 
0.15446 
0.17208 
0.17208 
0.13177 
0.13177 
0.13390 
0.13390 
0.12532 
0.12532 
0.21322 
0.21322 
0.10218 
0.10218 
0.11863 
0.11863 
0.19724 
0.19724 
0.15431 
0.15431 
0.08578 
0.08578 
0.17592 
0.17592 
0.11387 
0.11387 
0.15967 
0.15967 
0.14186 
0.14186 
0.11997 
0.11997 
0.14432 
0.14432 
0.27882 
0.27882 
0.27273 
0.27273 
0.04353 
0.04353 
0.25079 
0.25079 
0.16423 
0.16423 
0.19113 
0.19113 
0.16147 
0.16147 
0.08307 
0.08307 
0.05419 
0.05419 
0.06229 
0.06229 
0.11451 
0.11451 
0.12146 
0.12146 
0.21641 
0.21641 
0.15791 
0.15791 
0.25930 
0.25930 
0.11178 
0.11178 
0.11713 
0.11713 
0.14703 
0.14703 
0.10515 
0.10515 
0.18234 
0.18234 
0.23687 
0.23687 
0.15499 
0.15499 
0.13479 
0.13479 
0.15552 
0.15552 
0.13476 
0.13476 
0.14574 
0.14574 
0.22886 
0.22886 
0.10344 
0.10344 
0.09045 
0.09045 
0.23589 
0.23589 
0.10655 
0.10655 
0.17413 
0.17413 
0.15081 
0.15081 
0.15608 
0.15608 
0.21492 
0.21492 
0.30169 
0.30169 
0.26819 
0.26819 
0.10007 
0.10007 
0.09201 
0.09201 
0.11450 
0.11450 
0.23484 
0.23484 
0.20884 
0.20884 
0.06735 
0.06735 
0.20916 
0.20916 
0.06492 
0.06492 
0.20036 
0.20036 
0.13461 
0.13461 
0.17605 
0.17605 
0.13412 
0.13412 
0.22203 
0.22203 
0.32890 
0.32890 
0.23399 
0.23399 
0.14979 
0.14979 
0.11152 
0.11152 
0.16877 
0.16877 
0.07641 
0.07641 
0.24095 
0.24095 
0.07873 
0.07873 
0.15498 
0.15498 
0.23338 
0.23338 
0.11491 
0.11491 
0.06956 
0.06956 
0.21852 
0.21852 
0.23775 
0.23775 
0.15417 
0.15417 
0.06595 
0.06595 
0.18543 
0.18543 
0.13299 
0.13299 
0.25000 
0.25000 
0.22540 
0.22540 
0.14222 
0.14222 
0.06062 
0.06062 
0.12617 
0.12617 
0.12517 
0.12517 
0.09764 
0.09764 
0.14167 
0.14167 
0.16019 
0.16019 
0.15838 
0.15838 
0.24217 
0.24217 
0.12199 
0.12199 
0.12386 
0.12386 
0.19527 
0.19527 
0.16832 
0.16832 
0.14540 
0.14540 
0.09135 
0.09135 
0.04601 
0.04601 
0.14231 
0.14231 
0.12274 
0.12274 
0.16495 
0.16495 
0.07139 
0.07139 
0.24100 
0.24100 
0.12138 
0.12138 
0.23581 
0.23581 
0.17995 
0.17995 
0.09955 
0.09955 
0.22876 
0.22876 
0.20612 
0.20612 
0.16163 
0.16163 
0.18320 
0.18320 
0.16419 
0.16419 
0.15909 
0.15909 
0.06715 
0.06715 
0.07805 
0.07805 
0.06430 
0.06430 
0.08488 
0.08488 
0.14088 
0.14088 
0.15748 
0.15748 
0.11636 
0.11636 
0.19556 
0.19556 
0.12825 
0.12825 
0.19381 
0.19381 
0.16417 
0.16417 
0.16394 
0.16394 
0.04984 
0.04984 
0.11457 
0.11457 
0.15388 
0.15388 
0.15845 
0.15845 
0.27589 
0.27589 
0.10756 
0.10756 
0.05329 
0.05329 
0.14420 
0.14420 
0.17587 
0.17587 
0.25026 
0.25026 
0.19033 
0.19033 
0.23712 
0.23712 
0.15656 
0.15656 
0.09251 
0.09251 
0.10381 
0.10381 
0.10167 
0.10167 
0.24110 
0.24110 
0.14879 
0.14879 
0.20746 
0.20746 
0.21782 
0.21782 
0.20835 
0.20835 
0.25579 
0.25579 
0.09170 
0.09170 
0.29853 
0.29853 
0.17076 
0.17076 
0.08331 
0.08331 
0.14644 
0.14644 
0.12705 
0.12705 
0.12566 
0.12566 
0.14636 
0.14636 
0.06895 
0.06895 
0.07523 
0.07523 
0.10873 
0.10873 
0.12275 
0.12275 
0.07978 
0.07978 
0.13341 
0.13341 
0.04790 
0.04790 
0.19543 
0.19543 
0.08374 
0.08374 
SCALARS Umean_X double 1 
LOOKUP_TABLE default
-0.00100 
-0.00100 
0.00450 
0.00450 
-0.02650 
-0.02650 
0.06000 
0.06000 
-0.00600 
-0.00600 
0.11400 
0.11400 
0.06500 
0.06500 
0.13950 
0.13950 
-0.00850 
-0.00850 
-0.00400 
-0.00400 
-0.06750 
-0.06750 
0.08300 
0.08300 
0.05100 
0.05100 
-0.01250 
-0.01250 
0.14100 
0.14100 
0.05200 
0.05200 
-0.02950 
-0.02950 
0.07850 
0.07850 
-0.02150 
-0.02150 
0.06800 
0.06800 
0.00100 
0.00100 
-0.00700 
-0.00700 
-0.01400 
-0.01400 
0.07450 
0.07450 
-0.03000 
-0.03000 
0.21800 
0.21800 
-0.02200 
-0.02200 
0.03350 
0.03350 
0.01500 
0.01500 
0.06400 
0.06400 
0.09600 
0.09600 
0.07250 
0.07250 
0.13600 
0.13600 
0.08750 
0.08750 
-0.03000 
-0.03000 
0.11450 
0.11450 
0.03150 
0.03150 
0.11000 
0.11000 
0.11300 
0.11300 
-0.02650 
-0.02650 
0.02650 
0.02650 
0.02200 
0.02200 
0.10150 
0.10150 
-0.05250 
-0.05250 
-0.00450 
-0.00450 
0.10000 
0.10000 
-0.02750 
-0.02750 
-0.00200 
-0.00200 
0.07300 
0.07300 
0.03500 
0.03500 
0.19000 
0.19000 
0.04100 
0.04100 
0.07250 
0.07250 
0.04750 
0.04750 
-0.03100 
-0.03100 
0.02200 
0.02200 
0.06750 
0.06750 
0.01600 
0.01600 
0.03100 
0.03100 
0.10600 
0.10600 
0.04650 
0.04650 
0.04750 
0.04750 
0.07900 
0.07900 
-0.03850 
-0.03850 
0.02350 
0.02350 
0.10800 
0.10800 
0.01450 
0.01450 
0.08700 
0.08700 
-0.00450 
-0.00450 
0.07150 
0.07150 
0.02150 
0.02150 
0.06250 
0.06250 
0.12300 
0.12300 
0.10750 
0.10750 
0.08050 
0.08050 
0.07700 
0.07700 
0.13650 
0.13650 
-0.02650 
-0.02650 
0.00250 
0.00250 
0.00200 
0.00200 
0.03850 
0.03850 
0.03550 
0.03550 
0.03950 
0.03950 
-0.01550 
-0.01550 
0.00250 
0.00250 
0.01800 
0.01800 
0.06450 
0.06450 
0.05300 
0.05300 
0.03200 
0.03200 
0.05400 
0.05400 
0.05150 
0.05150 
0.06250 
0.06250 
-0.02350 
-0.02350 
-0.06100 
-0.06100 
0.01200 
0.01200 
-0.03750 
-0.03750 
-0.03450 
-0.03450 
0.02100 
0.02100 
0.01400 
0.01400 
0.06900 
0.06900 
0.09700 
0.09700 
0.08200 
0.08200 
0.10800 
0.10800 
0.12550 
0.12550 
0.10900 
0.10900 
0.00300 
0.00300 
0.03450 
0.03450 
0.02700 
0.02700 
0.09700 
0.09700 
0.14900 
0.14900 
0.07900 
0.07900 
0.09150 
0.09150 
0.06350 
0.06350 
0.12200 
0.12200 
0.07900 
0.07900 
0.04350 
0.04350 
0.03950 
0.03950 
0.03900 
0.03900 
0.05550 
0.05550 
-0.03200 
-0.03200 
0.05100 
0.05100 
-0.00100 
-0.00100 
0.09450 
0.09450 
0.00750 
0.00750 
0.08950 
0.08950 
0.00450 
0.00450 
-0.01200 
-0.01200 
0.09550 
0.09550 
-0.00650 
-0.00650 
0.01500 
0.01500 
0.04250 
0.04250 
0.04850 
0.04850 
0.03050 
0.03050 
0.07150 
0.07150 
0.06850 
0.06850 
0.13800 
0.13800 
0.00150 
0.00150 
0.18300 
0.18300 
0.02050 
0.02050 
0.09700 
0.09700 
0.02650 
0.02650 
0.03950 
0.03950 
0.08700 
0.08700 
-0.06700 
-0.06700 
0.07000 
0.07000 
0.12550 
0.12550 
0.02300 
0.02300 
0.11400 
0.11400 
0.05700 
0.05700 
0.06550 
0.06550 
0.03600 
0.03600 
0.10150 
0.10150 
-0.05000 
-0.05000 
0.10950 
0.10950 
-0.01900 
-0.01900 
0.14300 
0.14300 
0.08250 
0.08250 
0.05200 
0.05200 
0.04300 
0.04300 
0.15150 
0.15150 
0.02850 
0.02850 
-0.00000 
-0.00000 
0.01950 
0.01950 
0.17300 
0.17300 
0.01200 
0.01200 
-0.02500 
-0.02500 
0.00400 
0.00400 
0.10150 
0.10150 
0.02700 
0.02700 
0.05150 
0.05150 
0.10750 
0.10750 
0.09850 
0.09850 
0.01100 
0.01100 
0.05650 
0.05650 
0.02700 
0.02700 
0.15000 
0.15000 
0.09600 
0.09600 
0.11750 
0.11750 
0.00900 
0.00900 
0.07600 
0.07600 
0.08750 
0.08750 
0.14900 
0.14900 
-0.00000 
-0.00000 
0.00300 
0.00300 
-0.00000 
-0.00000 
0.04950 
0.04950 
-0.07900 
-0.07900 
0.03300 
0.03300 
0.05450 
0.05450 
0.09700 
0.09700 
0.04750 
0.04750 
-0.00050 
-0.00050 
0.04800 
0.04800 
0.01200 
0.01200 
0.11100 
0.11100 
-0.11650 
-0.11650 
-0.04050 
-0.04050 
0.00850 
0.00850 
-0.01650 
-0.01650 
0.00300 
0.00300 
0.08650 
0.08650 
0.09250 
0.09250 
0.05850 
0.05850 
0.05650 
0.05650 
0.06450 
0.06450 
0.06450 
0.06450 
-0.00300 
-0.00300 
0.19350 
0.19350 
0.07700 
0.07700 
-0.00300 
-0.00300 
0.02900 
0.02900 
0.03600 
0.03600 
0.04100 
0.04100 
0.02350 
0.02350 
0.04700 
0.04700 
0.06300 
0.06300 
0.07100 
0.07100 
-0.02600 
-0.02600 
0.09900 
0.09900 
0.08750 
0.08750 
0.13700 
0.13700 
0.00850 
0.00850 
0.08450 
0.08450 
0.14950 
0.14950 
-0.00400 
-0.00400 
0.14500 
0.14500 
0.03850 
0.03850 
0.08450 
0.08450 
-0.01150 
-0.01150 
0.05150 
0.05150 
0.00550 
0.00550 
-0.02100 
-0.02100 
0.02000 
0.02000 
0.06950 
0.06950 
0.10450 
0.10450 
0.11450 
0.11450 
0.04200 
0.04200 
0.11150 
0.11150 
0.08200 
0.08200 
-0.05700 
-0.05700 
-0.02100 
-0.02100 
-0.01350 
-0.01350 
0.10300 
0.10300 
0.07900 
0.07900 
0.08050 
0.08050 
0.08300 
0.08300 
0.00300 
0.00300 
0.03250 
0.03250 
-0.02150 
-0.02150 
0.07500 
0.07500 
0.03700 
0.03700 
0.08800 
0.08800 
0.00300 
0.00300 
0.03650 
0.03650 
-0.02850 
-0.02850 
0.13000 
0.13000 
0.00300 
0.00300 
0.01450 
0.01450 
0.08550 
0.08550 
0.05150 
0.05150 
0.11250 
0.11250 
0.02600 
0.02600 
0.05850 
0.05850 
0.03050 
0.03050 
0.03450 
0.03450 
0.02450 
0.02450 
0.06850 
0.06850 
0.03500 
0.03500 
0.07400 
0.07400 
0.00500 
0.00500 
0.18050 
0.18050 
0.04100 
0.04100 
0.01900 
0.01900 
0.09150 
0.09150 
0.20050 
0.20050 
0.05900 
0.05900 
0.00900 
0.00900 
0.08350 
0.08350 
0.01000 
0.01000 
-0.00450 
-0.00450 
0.07150 
0.07150 
0.05100 
0.05100 
0.04550 
0.04550 
0.07150 
0.07150 
0.04300 
0.04300 
-0.01600 
-0.01600 
-0.00300 
-0.00300 
0.07450 
0.07450 
0.00600 
0.00600 
0.06750 
0.06750 
0.11700 
0.11700 
0.05350 
0.05350 
0.03800 
0.03800 
0.05200 
0.05200 
0.09350 
0.09350 
0.14600 
0.14600 
-0.01250 
-0.01250 
-0.02300 
-0.02300 
0.07750 
0.07750 
0.03100 
0.03100 
-0.00450 
-0.00450 
0.00850 
0.00850 
0.13200 
0.13200 
0.01200 
0.01200 
0.03100 
0.03100 
0.02050 
0.02050 
0.05650 
0.05650 
-0.03050 
-0.03050 
0.04300 
0.04300 
0.08050 
0.08050 
-0.00700 
-0.00700 
0.05350 
0.05350 
0.10800 
0.10800 
0.08550 
0.08550 
0.04150 
0.04150 
0.13900 
0.13900 
0.08050 
0.08050 
0.07700 
0.07700 
0.03900 
0.03900 
0.13450 
0.13450 
0.06600 
0.06600 
0.05450 
0.05450 
0.08200 
0.08200 
0.05050 
0.05050 
0.07900 
0.07900 
0.06450 
0.06450 
-0.04300 
-0.04300 
0.08700 
0.08700 
0.01100 
0.01100 
-0.02750 
-0.02750 
-0.00700 
-0.00700 
0.02400 
0.02400 
0.07550 
0.07550 
0.09550 
0.09550 
0.07550 
0.07550 
0.08750 
0.08750 
-0.02050 
-0.02050 
0.01400 
0.01400 
0.04450 
0.04450 
0.07800 
0.07800 
0.07950 
0.07950 
0.04950 
0.04950 
0.11550 
0.11550 
0.04100 
0.04100 
0.11600 
0.11600 
0.11150 
0.11150 
-0.07050 
-0.07050 
0.10550 
0.10550 
0.10050 
0.10050 
0.07500 
0.07500 
-0.00400 
-0.00400 
0.07450 
0.07450 
0.08050 
0.08050 
0.06700 
0.06700 
0.05200 
0.05200 
0.03950 
0.03950 
0.04500 
0.04500 
0.04500 
0.04500 
0.05950 
0.05950 
0.09050 
0.09050 
0.03450 
0.03450 
0.12950 
0.12950 
0.13300 
0.13300 
-0.04050 
-0.04050 
0.00500 
0.00500 
-0.00700 
-0.00700 
0.03650 
0.03650 
0.09850 
0.09850 
0.04750 
0.04750 
0.01050 
0.01050 
0.07300 
0.07300 
0.03850 
0.03850 
0.03750 
0.03750 
0.01800 
0.01800 
0.08100 
0.08100 
0.07750 
0.07750 
-0.00000 
-0.00000 
0.06050 
0.06050 
-0.00200 
-0.00200 
0.14150 
0.14150 
-0.02050 
-0.02050 
0.07350 
0.07350 
0.02300 
0.02300 
0.08250 
0.08250 
0.05250 
0.05250 
0.02200 
0.02200 
-0.05400 
-0.05400 
0.01150 
0.01150 
0.19750 
0.19750 
0.07050 
0.07050 
0.04400 
0.04400 
0.06050 
0.06050 
-0.03100 
-0.03100 
0.13400 
0.13400 
0.10200 
0.10200 
0.05700 
0.05700 
0.10150 
0.10150 
0.15750 
0.15750 
0.11300 
0.11300 
0.05100 
0.05100 
0.02000 
0.02000 
0.06950 
0.06950 
-0.00700 
-0.00700 
0.04550 
0.04550 
0.11100 
0.11100 
0.02800 
0.02800 
0.11600 
0.11600 
0.05400 
0.05400 
0.01200 
0.01200 
0.06200 
0.06200 
0.15150 
0.15150 
0.13450 
0.13450 
0.02800 
0.02800 
0.02700 
0.02700 
0.11900 
0.11900 
0.05200 
0.05200 
-0.01050 
-0.01050 
0.10850 
0.10850 
0.09950 
0.09950 
-0.01100 
-0.01100 
0.01950 
0.01950 
0.04700 
0.04700 
0.08400 
0.08400 
0.08750 
0.08750 
0.02550 
0.02550 
0.10950 
0.10950 
0.14250 
0.14250 
0.01850 
0.01850 
-0.04600 
-0.04600 
0.07750 
0.07750 
0.03800 
0.03800 
0.06600 
0.06600 
0.03450 
0.03450 
0.03600 
0.03600 
0.07250 
0.07250 
0.03700 
0.03700 
0.05300 
0.05300 
0.04400 
0.04400 
0.10400 
0.10400 
0.03850 
0.03850 
0.06000 
0.06000 
0.12900 
0.12900 
-0.03900 
-0.03900 
0.12800 
0.12800 
0.03350 
0.03350 
-0.05800 
-0.05800 
0.01450 
0.01450 
0.01000 
0.01000 
0.12400 
0.12400 
-0.00550 
-0.00550 
0.06750 
0.06750 
0.01100 
0.01100 
0.04400 
0.04400 
0.07350 
0.07350 
0.06850 
0.06850 
0.08900 
0.08900 
0.19200 
0.19200 
0.12150 
0.12150 
-0.06750 
-0.06750 
0.10500 
0.10500 
0.10350 
0.10350 
0.00600 
0.00600 
0.01650 
0.01650 
0.12250 
0.12250 
-0.01200 
-0.01200 
0.09200 
0.09200 
0.06900 
0.06900 
0.02850 
0.02850 
-0.00300 
-0.00300 
0.01150 
0.01150 
0.08200 
0.08200 
0.05400 
0.05400 
0.04250 
0.04250 
-0.02650 
-0.02650 
0.06750 
0.06750 
0.08800 
0.08800 
0.02000 
0.02000 
0.07400 
0.07400 
-0.01500 
-0.01500 
0.06700 
0.06700 
0.20350 
0.20350 
0.15050 
0.15050 
0.03200 
0.03200 
-0.04450 
-0.04450 
0.14100 
0.14100 
0.10300 
0.10300 
0.07400 
0.07400 
-0.06000 
-0.06000 
-0.02600 
-0.02600 
-0.00600 
-0.00600 
0.11900 
0.11900 
0.03700 
0.03700 
0.01750 
0.01750 
0.00900 
0.00900 
-0.01000 
-0.01000 
-0.02850 
-0.02850 
-0.09200 
-0.09200 
0.03850 
0.03850 
0.06800 
0.06800 
-0.01900 
-0.01900 
SCALARS Umean_Y double 1 
LOOKUP_TABLE default
0.06150 
0.06150 
0.07350 
0.07350 
0.09350 
0.09350 
0.10850 
0.10850 
0.15150 
0.15150 
0.07500 
0.07500 
0.19600 
0.19600 
0.07200 
0.07200 
0.07950 
0.07950 
0.09000 
0.09000 
0.00150 
0.00150 
0.10950 
0.10950 
0.08750 
0.08750 
0.07500 
0.07500 
0.07400 
0.07400 
0.11150 
0.11150 
0.04200 
0.04200 
0.02200 
0.02200 
0.09500 
0.09500 
0.06650 
0.06650 
0.11200 
0.11200 
0.03300 
0.03300 
0.10250 
0.10250 
0.13050 
0.13050 
0.05650 
0.05650 
0.12100 
0.12100 
0.09750 
0.09750 
0.07450 
0.07450 
0.07850 
0.07850 
0.02350 
0.02350 
0.01750 
0.01750 
0.02450 
0.02450 
0.07100 
0.07100 
0.08850 
0.08850 
0.03850 
0.03850 
0.11850 
0.11850 
0.00250 
0.00250 
0.03850 
0.03850 
0.00950 
0.00950 
0.13000 
0.13000 
0.11100 
0.11100 
0.05800 
0.05800 
0.07250 
0.07250 
0.03400 
0.03400 
0.08850 
0.08850 
0.14750 
0.14750 
0.06950 
0.06950 
0.10700 
0.10700 
-0.00350 
-0.00350 
0.08500 
0.08500 
0.11900 
0.11900 
0.06000 
0.06000 
0.14300 
0.14300 
0.10200 
0.10200 
0.11700 
0.11700 
0.05900 
0.05900 
0.11800 
0.11800 
0.17150 
0.17150 
0.17150 
0.17150 
0.09500 
0.09500 
0.02150 
0.02150 
0.02750 
0.02750 
0.01400 
0.01400 
0.09550 
0.09550 
0.08100 
0.08100 
0.03100 
0.03100 
0.09000 
0.09000 
0.14200 
0.14200 
0.05350 
0.05350 
0.05550 
0.05550 
0.08600 
0.08600 
0.14200 
0.14200 
0.01250 
0.01250 
0.07500 
0.07500 
0.01500 
0.01500 
0.13850 
0.13850 
0.15400 
0.15400 
0.04250 
0.04250 
0.06750 
0.06750 
0.13700 
0.13700 
0.04850 
0.04850 
0.09000 
0.09000 
0.00400 
0.00400 
0.03250 
0.03250 
0.04850 
0.04850 
0.14100 
0.14100 
0.11900 
0.11900 
0.11450 
0.11450 
0.06850 
0.06850 
0.06400 
0.06400 
0.11850 
0.11850 
0.14900 