# vtk DataFile Version 2.1 
Trajects from timestep 95 with color option 
ASCII 
 
DATASET POLYDATA POINTS 998 float 
-7.437 4.196 -72.633 
-7.335 4.282 -72.645 
3.017 10.681 -71.120 
2.994 10.906 -71.234 
2.566 0.439 -73.382 
2.655 0.725 -73.351 
3.813 2.866 -70.583 
3.839 3.096 -70.650 
-8.133 4.755 -72.297 
-8.044 4.811 -72.376 
7.175 5.013 -71.790 
7.137 5.305 -72.023 
10.897 5.217 -73.504 
10.988 5.379 -73.736 
-0.157 10.166 -72.272 
-0.212 10.331 -72.435 
-6.785 -0.107 -70.399 
-6.719 0.041 -70.400 
1.851 8.060 -67.990 
1.825 8.239 -67.911 
-11.536 9.210 -72.589 
-11.482 9.336 -72.567 
-2.142 -0.714 -70.230 
-2.064 -0.437 -70.268 
-5.345 10.761 -69.515 
-5.340 10.996 -69.571 
5.991 3.242 -70.688 
6.038 3.558 -70.796 
3.832 6.435 -69.538 
3.893 6.815 -69.559 
-2.000 6.317 -67.670 
-1.929 6.518 -67.614 
-10.114 0.132 -71.143 
-10.167 0.347 -71.099 
-3.144 4.146 -67.741 
-3.016 4.382 -67.699 
5.678 8.063 -71.916 
5.679 8.229 -71.954 
1.872 7.473 -69.802 
1.823 7.689 -69.798 
10.581 6.808 -69.692 
10.612 6.984 -69.961 
-4.431 3.888 -69.814 
-4.305 4.199 -69.779 
1.007 12.303 -67.078 
1.020 12.669 -67.148 
-1.317 3.070 -69.329 
-1.224 3.299 -69.337 
-9.695 -3.913 -73.088 
-9.560 -3.701 -73.184 
-2.433 -9.446 -72.341 
-2.478 -9.351 -72.422 
6.404 11.890 -71.986 
6.216 11.787 -72.070 
6.403 0.838 -68.144 
6.587 1.110 -68.342 
9.983 3.110 -71.815 
10.021 3.353 -71.903 
-10.559 9.053 -69.899 
-10.400 9.154 -69.824 
-0.563 -9.333 -72.839 
-0.503 -9.109 -72.860 
-7.632 10.297 -76.287 
-7.709 10.347 -76.334 
-0.942 -4.286 -70.330 
-0.790 -4.079 -70.446 
-4.275 -2.762 -69.457 
-4.059 -2.557 -69.502 
6.650 -2.666 -66.322 
6.799 -2.335 -66.484 
6.749 8.654 -68.936 
6.736 8.771 -69.093 
4.091 -5.998 -68.377 
4.216 -5.788 -68.660 
3.796 -12.930 -65.856 
3.882 -12.670 -66.194 
-9.359 5.854 -67.301 
-9.278 6.011 -67.216 
5.770 -9.819 -72.709 
5.970 -9.691 -72.870 
-6.335 -2.250 -71.803 
-6.209 -1.976 -71.862 
-9.532 4.668 -64.995 
-9.534 4.968 -65.111 
5.607 -6.522 -73.337 
5.850 -6.341 -73.390 
-6.847 4.158 -74.069 
-6.766 4.253 -74.084 
-12.348 3.751 -71.411 
-12.145 3.871 -71.608 
-12.445 2.903 -70.975 
-12.400 3.089 -71.007 
3.337 2.306 -74.725 
3.294 2.566 -74.842 
-10.755 -2.811 -73.616 
-10.588 -2.635 -73.722 
7.919 -5.496 -68.461 
7.990 -5.403 -68.393 
-15.969 -0.786 -73.508 
-16.091 -0.634 -73.532 
-0.037 2.573 -69.182 
-0.005 2.820 -69.117 
-6.891 -2.298 -64.255 
-6.802 -1.971 -64.281 
-0.411 7.926 -68.508 
-0.311 8.070 -68.510 
-9.239 7.878 -72.442 
-9.222 7.966 -72.377 
2.895 -2.445 -66.776 
3.052 -2.302 -67.004 
0.748 -3.628 -71.560 
0.956 -3.384 -71.720 
4.739 8.440 -69.596 
4.692 8.670 -69.689 
5.320 -1.665 -63.483 
5.426 -1.410 -63.636 
-3.617 1.214 -73.394 
-3.481 1.390 -73.404 
-2.700 -0.914 -66.444 
-2.757 -0.648 -66.504 
-12.358 8.929 -70.110 
-12.217 9.009 -70.209 
10.855 1.023 -73.994 
10.862 1.213 -74.055 
10.318 -9.421 -67.223 
10.425 -9.290 -67.155 
-11.357 8.990 -65.817 
-11.201 9.142 -65.711 
0.426 8.318 -65.458 
0.465 8.583 -65.331 
-5.703 -3.795 -61.277 
-5.709 -3.543 -61.310 
-1.500 11.190 -67.421 
-1.407 11.432 -67.384 
-4.740 8.650 -71.011 
-4.651 8.734 -70.991 
-6.103 -4.291 -65.859 
-6.028 -4.048 -65.953 
-10.629 0.482 -67.377 
-10.569 0.672 -67.444 
3.797 -3.286 -68.119 
3.944 -3.143 -68.339 
4.960 -6.080 -68.417 
5.168 -5.847 -68.708 
4.171 -5.152 -66.779 
4.282 -4.966 -67.098 
0.346 -4.788 -72.743 
0.468 -4.627 -72.861 
-13.110 -8.176 -71.931 
-12.989 -7.979 -71.949 
-3.501 0.484 -74.304 
-3.440 0.622 -74.311 
-1.674 1.833 -65.856 
-1.563 2.026 -65.662 
-11.416 -2.918 -66.097 
-11.246 -2.590 -66.181 
3.072 -5.420 -68.717 
3.214 -5.147 -69.010 
-0.478 4.449 -66.824 
-0.382 4.679 -66.629 
6.174 6.918 -71.713 
6.237 7.061 -71.788 
-2.626 1.782 -64.851 
-2.651 1.983 -64.805 
-9.884 -1.006 -69.435 
-9.765 -0.864 -69.585 
15.554 9.795 -72.051 
15.530 9.742 -72.042 
4.507 -6.606 -63.603 
4.733 -6.389 -63.970 
0.748 -6.272 -66.473 
0.898 -6.105 -66.567 
-6.354 3.162 -66.269 
-6.185 3.404 -66.275 
9.231 10.557 -66.880 
9.261 10.684 -66.859 
-14.953 6.430 -70.785 
-15.043 6.462 -70.901 
-4.670 -11.399 -62.612 
-4.505 -11.316 -62.844 
-5.284 8.576 -66.410 
-5.095 8.824 -66.195 
9.985 -4.598 -70.230 
10.235 -4.498 -70.433 
-2.259 -1.493 -63.731 
-2.179 -1.309 -63.802 
7.638 5.452 -71.543 
7.585 5.618 -71.739 
-8.093 4.839 -75.511 
-8.036 4.869 -75.493 
11.217 1.790 -69.645 
11.311 1.946 -69.712 
5.073 -0.680 -71.619 
5.150 -0.360 -71.814 
7.937 -7.721 -66.919 
7.990 -7.619 -66.968 
-10.220 -2.866 -71.521 
-10.083 -2.621 -71.678 
7.087 -5.943 -64.622 
7.211 -5.660 -64.766 
-5.791 2.316 -61.212 
-5.863 2.395 -61.310 
3.316 -5.051 -68.924 
3.470 -4.790 -69.240 
-7.386 -12.394 -69.753 
-7.366 -12.228 -69.775 
1.709 -11.514 -64.586 
1.881 -11.395 -64.826 
-12.630 2.035 -75.700 
-12.552 2.183 -75.857 
2.556 -0.922 -72.701 
2.643 -0.694 -72.751 
-5.147 3.759 -64.743 
-4.976 4.004 -64.655 
13.047 7.647 -68.674 
13.129 7.667 -68.726 
-12.404 -8.548 -71.045 
-12.178 -8.326 -71.152 
-3.134 -3.248 -71.825 
-2.978 -3.061 -71.787 
3.842 -7.555 -71.722 
4.013 -7.512 -71.887 
7.997 -7.253 -67.588 
7.995 -7.087 -67.672 
0.310 -10.400 -69.017 
0.542 -10.237 -69.266 
-3.026 -10.154 -68.069 
-2.890 -9.918 -68.182 
-9.425 12.223 -66.348 
-9.394 12.326 -66.364 
-7.513 6.613 -68.201 
-7.237 6.670 -68.139 
-10.018 -8.594 -71.275 
-9.819 -8.468 -71.498 
4.938 4.420 -70.387 
4.880 4.671 -70.542 
6.967 11.849 -67.411 
6.960 11.948 -67.368 
5.530 -4.741 -65.953 
5.504 -4.376 -65.990 
8.825 9.739 -73.430 
8.795 9.855 -73.646 
-4.652 7.766 -64.772 
-4.507 8.017 -64.671 
0.107 -11.681 -65.245 
0.210 -11.598 -65.415 
6.014 -2.239 -62.819 
6.068 -1.901 -62.978 
1.197 -12.147 -63.089 
1.415 -12.096 -63.280 
-7.175 -3.830 -71.466 
-7.080 -3.486 -71.558 
14.089 4.226 -65.830 
14.281 4.461 -65.991 
-7.343 3.571 -62.672 
-7.381 3.753 -62.767 
3.685 -0.822 -66.188 
3.879 -0.630 -66.389 
-12.022 7.483 -69.461 
-11.982 7.650 -69.505 
8.931 7.422 -60.762 
9.019 7.664 -60.923 
-10.886 -10.944 -71.145 
-10.745 -10.785 -71.406 
-13.067 -6.290 -67.484 
-13.072 -6.168 -67.710 
-2.793 8.219 -66.218 
-2.693 8.396 -66.193 
10.722 3.145 -63.944 
10.897 3.386 -64.141 
-14.137 5.548 -67.787 
-13.990 5.722 -67.727 
1.324 -1.504 -64.195 
1.468 -1.267 -64.181 
-14.355 0.931 -73.412 
-14.308 1.078 -73.490 
10.394 -2.743 -72.131 
10.589 -2.623 -72.407 
5.214 2.420 -67.003 
5.448 2.706 -67.108 
2.124 9.122 -72.549 
2.026 9.393 -72.618 
11.239 -7.515 -68.259 
11.448 -7.380 -68.314 
-13.051 12.663 -68.655 
-12.995 12.667 -68.588 
-1.455 8.477 -70.096 
-1.389 8.612 -70.126 
-3.327 -4.825 -67.381 
-3.151 -4.572 -67.372 
12.837 -0.096 -65.044 
13.067 -0.004 -65.124 
-9.620 10.113 -63.175 
-9.555 10.367 -63.109 
-0.173 -8.388 -62.319 
0.110 -8.381 -62.510 
4.357 10.740 -67.228 
4.367 10.913 -67.310 
-7.277 1.395 -63.931 
-7.228 1.589 -63.913 
8.748 -6.927 -67.655 
8.848 -6.822 -67.598 
-2.541 10.096 -65.813 
-2.504 10.333 -65.784 
2.382 -12.845 -70.620 
2.641 -12.751 -70.909 
8.280 -11.176 -75.806 
8.274 -11.287 -76.006 
9.440 -12.984 -70.290 
9.683 -12.923 -70.239 
-9.794 12.255 -70.951 
-9.677 12.409 -70.941 
7.484 -3.454 -64.421 
7.495 -3.135 -64.443 
2.139 -1.131 -61.764 
2.247 -1.007 -61.747 
-0.145 -4.347 -63.330 
-0.008 -4.153 -63.408 
-13.539 -0.914 -66.885 
-13.522 -0.698 -66.980 
10.691 -2.478 -68.106 
10.721 -2.442 -68.137 
2.196 -6.874 -69.335 
2.343 -6.742 -69.525 
-9.587 -5.538 -74.355 
-9.416 -5.355 -74.496 
-4.885 -9.745 -66.686 
-4.736 -9.702 -66.785 
-2.484 7.817 -68.719 
-2.343 8.021 -68.767 
13.731 1.672 -63.407 
13.877 1.979 -63.591 
-3.685 10.026 -65.509 
-3.519 10.301 -65.476 
16.041 0.032 -73.137 
16.044 0.081 -73.192 
-12.300 7.820 -64.362 
-12.298 7.920 -64.216 
0.474 -9.809 -70.678 
0.678 -9.667 -70.926 
-11.120 -1.068 -75.623 
-11.182 -1.015 -75.647 
11.483 6.860 -70.491 
11.642 6.990 -70.604 
2.922 -11.432 -63.274 
3.077 -11.308 -63.481 
15.662 -2.772 -68.923 
15.535 -2.749 -68.949 
-12.738 2.769 -68.586 
-12.590 3.047 -68.622 
-10.035 -3.256 -68.847 
-10.069 -2.923 -68.881 
-11.301 -3.227 -67.993 
-11.253 -3.062 -68.160 
-7.088 -1.627 -66.327 
-6.993 -1.486 -66.413 
14.382 -6.521 -73.538 
14.406 -6.538 -73.608 
12.545 1.439 -68.466 
12.667 1.599 -68.579 
-9.832 0.836 -63.656 
-9.801 1.055 -63.790 
-1.510 -8.890 -63.134 
-1.324 -8.740 -63.207 
4.995 9.608 -73.272 
4.969 9.635 -73.340 
10.230 8.834 -67.645 
10.219 8.768 -67.590 
0.961 -10.283 -70.648 
1.164 -10.164 -70.879 
-7.166 -8.435 -70.909 
-7.013 -8.091 -70.895 
2.022 -8.102 -63.200 
2.241 -7.978 -63.415 
7.263 11.197 -66.572 
7.298 11.370 -66.488 
2.050 -12.078 -63.971 
2.148 -12.022 -64.204 
-13.940 -10.307 -68.599 
-13.887 -10.142 -68.724 
4.752 -9.063 -67.317 
4.852 -9.002 -67.670 
3.272 9.719 -66.008 
3.295 10.052 -66.036 
-5.960 -2.309 -68.402 
-5.802 -2.168 -68.447 
9.451 11.214 -68.085 
9.382 11.376 -68.122 
5.410 2.907 -65.676 
5.594 3.131 -65.729 
7.632 -0.916 -71.251 
7.786 -0.692 -71.486 
-2.485 -1.584 -73.342 
-2.280 -1.364 -73.557 
-2.319 0.609 -62.751 
-2.342 0.759 -62.796 
13.212 10.320 -63.916 
13.351 10.600 -63.889 
-6.973 -5.880 -63.912 
-6.611 -5.661 -64.164 
2.461 -5.063 -68.218 
2.572 -4.829 -68.469 
6.120 -11.520 -75.362 
6.369 -11.423 -75.509 
-8.295 10.895 -65.061 
-8.105 11.130 -64.991 
12.405 -0.527 -68.346 
12.567 -0.451 -68.368 
-10.101 11.599 -65.985 
-9.967 11.666 -66.059 
6.735 -9.609 -68.045 
6.897 -9.334 -68.196 
-10.756 -4.109 -67.326 
-10.620 -3.946 -67.528 
-4.389 -3.653 -70.969 
-4.360 -3.364 -71.026 
2.289 6.168 -58.329 
2.276 6.392 -58.769 
1.084 3.104 -64.233 
1.289 3.264 -64.288 
-4.363 2.677 -62.321 
-4.324 2.790 -62.217 
8.904 0.004 -70.977 
9.022 0.200 -71.251 
14.047 11.210 -69.438 
14.028 11.045 -69.478 
-5.629 1.655 -63.652 
-5.578 1.885 -63.613 
5.096 5.603 -64.713 
5.166 5.745 -64.701 
-0.082 2.867 -61.045 
0.028 3.019 -61.173 
2.209 -11.402 -63.691 
2.408 -11.296 -63.968 
-3.411 -11.927 -67.025 
-3.246 -11.841 -67.179 
0.182 -6.904 -61.305 
0.561 -6.783 -61.613 
-7.313 12.240 -63.927 
-7.312 12.436 -64.089 
[...]
POINT_DATA 998 
SCALARS Umean double 1 
LOOKUP_TABLE default
0.06698 
0.06698 
0.12664 
0.12664 
0.15056 
0.15056 
0.12048 
0.12048 
0.06576 
0.06576 
0.18775 
0.18775 
0.14862 
0.14862 
0.11918 
0.11918 
0.08103 
0.08103 
0.09869 
0.09869 
0.06942 
0.06942 
0.14514 
0.14514 
0.12082 
0.12082 
0.16862 
0.16862 
0.19272 
0.19272 
0.11020 
0.11020 
0.11288 
0.11288 
0.13587 
0.13587 
0.08515 
0.08515 
0.11076 
0.11076 
0.16148 
0.16148 
0.16869 
0.16869 
0.18643 
0.18643 
0.12365 
0.12365 
0.13452 
0.13452 
0.06635 
0.06635 
0.11512 
0.11512 
0.19173 
0.19173 
0.13061 
0.13061 
0.10137 
0.10137 
0.11642 
0.11642 
0.05157 
0.05157 
0.14090 
0.14090 
0.15059 
0.15059 
0.19875 
0.19875 
0.09812 
0.09812 
0.18696 
0.18696 
0.21751 
0.21751 
0.09802 
0.09802 
0.14344 
0.14344 
0.15365 
0.15365 
0.16083 
0.16083 
0.15380 
0.15380 
0.06287 
0.06287 
0.15364 
0.15364 
0.09701 
0.09701 
0.14417 
0.14417 
0.13238 
0.13238 
0.06766 
0.06766 
0.09819 
0.09819 
0.12870 
0.12870 
0.16995 
0.16995 
0.08766 
0.08766 
0.05536 
0.05536 
0.15579 
0.15579 
0.17916 
0.17916 
0.12625 
0.12625 
0.15785 
0.15785 
0.11132 
0.11132 
0.13929 
0.13929 
0.09498 
0.09498 
0.09984 
0.09984 
0.09115 
0.09115 
0.12112 
0.12112 
0.14822 
0.14822 
0.12711 
0.12711 
0.13094 
0.13094 
0.06200 
0.06200 
0.13556 
0.13556 
0.10511 
0.10511 
0.15038 
0.15038 
0.21344 
0.21344 
0.19279 
0.19279 
0.11697 
0.11697 
0.11595 
0.11595 
0.07552 
0.07552 
0.14765 
0.14765 
0.18943 
0.18943 
0.21245 
0.21245 
0.15823 
0.15823 
0.08666 
0.08666 
0.10385 
0.10385 
0.11919 
0.11919 
0.02944 
0.02944 
0.24127 
0.24127 
0.12168 
0.12168 
0.14762 
0.14762 
0.06609 
0.06609 
0.07513 
0.07513 
0.14827 
0.14827 
0.18937 
0.18937 
0.16860 
0.16860 
0.10642 
0.10642 
0.13113 
0.13113 
0.03344 
0.03344 
0.09703 
0.09703 
0.19128 
0.19128 
0.06248 
0.06248 
0.16081 
0.16081 
0.17044 
0.17044 
0.07251 
0.07251 
0.21891 
0.21891 
0.08432 
0.08432 
0.15917 
0.15917 
0.11471 
0.11471 
0.12455 
0.12455 
0.15573 
0.15573 
0.04957 
0.04957 
0.16719 
0.16719 
0.12324 
0.12324 
0.12074 
0.12074 
0.09303 
0.09303 
0.18868 
0.18868 
0.14745 
0.14745 
0.05437 
0.05437 
0.14428 
0.14428 
0.16218 
0.16218 
0.15032 
0.15032 
0.05408 
0.05408 
0.18390 
0.18390 
0.12350 
0.12350 
0.15348 
0.15348 
0.10770 
0.10770 
0.18871 
0.18871 
0.14714 
0.14714 
0.18427 
0.18427 
0.17176 
0.17176 
0.10439 
0.10439 
0.16949 
0.16949 
0.08864 
0.08864 
0.15185 
0.15185 
0.16829 
0.16829 
0.12844 
0.12844 
0.10241 
0.10241 
0.17855 
0.17855 
0.11778 
0.11778 
0.13884 
0.13884 
0.08646 
0.08646 
0.17930 
0.17930 
0.19208 
0.19208 
0.14816 
0.14816 
0.12741 
0.12741 
0.04371 
0.04371 
0.07662 
0.07662 
0.15416 
0.15416 
0.13016 
0.13016 
0.13518 
0.13518 
0.17075 
0.17075 
0.09586 
0.09586 
0.10045 
0.10045 
0.07790 
0.07790 
0.12081 
0.12081 
0.19965 
0.19965 
0.11441 
0.11441 
0.12784 
0.12784 
0.09683 
0.09683 
0.15997 
0.15997 
0.08266 
0.08266 
0.12499 
0.12499 
0.11829 
0.11829 
0.02809 
0.02809 
0.13705 
0.13705 
0.14371 
0.14371 
0.09199 
0.09199 
0.12629 
0.12629 
0.19328 
0.19328 
0.16145 
0.16145 
0.03686 
0.03686 
0.08849 
0.08849 
0.17556 
0.17556 
0.04251 
0.04251 
0.11721 
0.11721 
0.14340 
0.14340 
0.06583 
0.06583 
0.15850 
0.15850 
0.16823 
0.16823 
0.11981 
0.11981 
0.09527 
0.09527 
0.03796 
0.03796 
0.11538 
0.11538 
0.12930 
0.12930 
0.12492 
0.12492 
0.03882 
0.03882 
0.04331 
0.04331 
0.16487 
0.16487 
0.18838 
0.18838 
0.16550 
0.16550 
0.09774 
0.09774 
0.12945 
0.12945 
0.10684 
0.10684 
0.18596 
0.18596 
0.16748 
0.16748 
0.10825 
0.10825 
0.08996 
0.08996 
0.14734 
0.14734 
0.17966 
0.17966 
0.18483 
0.18483 
0.07914 
0.07914 
0.15688 
0.15688 
0.24623 
0.24623 
0.18033 
0.18033 
0.15250 
0.15250 
0.15510 
0.15510 
0.09014 
0.09014 
0.08355 
0.08355 
0.17654 
0.17654 
0.14652 
0.14652 
0.14800 
0.14800 
0.24695 
0.24695 
0.13290 
0.13290 
0.07922 
0.07922 
0.17848 
0.17848 
0.08542 
0.08542 
0.11940 
0.11940 
0.07939 
0.07939 
0.11356 
0.11356 
0.17858 
0.17858 
0.12077 
0.12077 
0.25157 
0.25157 
0.12714 
0.12714 
0.11130 
0.11130 
0.10467 
0.10467 
0.14298 
0.14298 
0.16574 
0.16574 
0.11012 
0.11012 
0.14677 
0.14677 
0.16372 
0.16372 
0.07557 
0.07557 
0.19716 
0.19716 
0.17721 
0.17721 
0.14271 
0.14271 
0.09188 
0.09188 
0.14884 
0.14884 
0.19282 
0.19282 
0.02305 
0.02305 
0.09167 
0.09167 
0.07307 
0.07307 
0.14096 
0.14096 
0.06218 
0.06218 
0.08727 
0.08727 
0.15876 
0.15876 
0.09343 
0.09343 
0.12872 
0.12872 
0.12349 
0.12349 
0.09224 
0.09224 
0.21278 
0.21278 
0.12134 
0.12134 
0.12370 
0.12370 
0.06178 
0.06178 
0.18141 
0.18141 
0.09823 
0.09823 
0.11598 
0.11598 
0.11895 
0.11895 
0.07779 
0.07779 
0.09615 
0.09615 
0.11379 
0.11379 
0.09119 
0.09119 
0.04301 
0.04301 
0.09706 
0.09706 
0.08736 
0.08736 
0.15932 
0.15932 
0.14386 
0.14386 
0.19891 
0.19891 
0.04727 
0.04727 
0.07120 
0.07120 
0.14120 
0.14120 
0.06387 
0.06387 
0.14553 
0.14553 
0.13546 
0.13546 
0.12859 
0.12859 
0.09581 
0.09581 
0.18554 
0.18554 
0.06818 
0.06818 
0.14434 
0.14434 
0.07294 
0.07294 
0.12279 
0.12279 
0.05283 
0.05283 
0.07629 
0.07629 
0.13181 
0.13181 
0.10627 
0.10627 
0.16666 
0.16666 
0.12513 
0.12513 
0.12448 
0.12448 
0.07087 
0.07087 
0.16366 
0.16366 
0.11763 
0.11763 
0.14722 
0.14722 
0.16063 
0.16063 
0.19487 
0.19487 
0.07203 
0.07203 
0.09194 
0.09194 
0.19665 
0.19665 
0.03882 
0.03882 
0.14401 
0.14401 
0.11810 
0.11810 
0.12842 
0.12842 
0.15244 
0.15244 
0.06638 
0.06638 
0.13329 
0.13329 
0.05178 
0.05178 
0.10901 
0.10901 
0.10342 
0.10342 
0.12687 
0.12687 
0.11989 
0.11989 
0.08629 
0.08629 
0.15652 
0.15652 
0.06156 
0.06156 
0.11228 
0.11228 
0.05775 
0.05775 
0.08484 
0.08484 
0.17197 
0.17197 
0.09325 
0.09325 
0.18321 
0.18321 
0.10191 
0.10191 
0.14773 
0.14773 
0.13590 
0.13590 
0.09711 
0.09711 
0.12195 
0.12195 
0.16258 
0.16258 
0.16565 
0.16565 
0.14753 
0.14753 
0.15010 
0.15010 
0.14351 
0.14351 
0.13994 
0.13994 
0.13899 
0.13899 
0.16609 
0.16609 
0.10901 
0.10901 
0.14327 
0.14327 
0.10364 
0.10364 
0.15717 
0.15717 
0.17587 
0.17587 
0.08756 
0.08756 
0.16024 
0.16024 
0.18447 
0.18447 
0.13239 
0.13239 
0.25833 
0.25833 
0.12689 
0.12689 
0.20042 
0.20042 
0.15362 
0.15362 
0.12317 
0.12317 
0.15543 
0.15543 
0.15184 
0.15184 
0.12521 
0.12521 
0.09490 
0.09490 
0.16167 
0.16167 
0.12552 
0.12552 
0.08865 
0.08865 
0.10614 
0.10614 
0.12830 
0.12830 
0.09994 
0.09994 
0.08215 
0.08215 
0.05700 
0.05700 
0.09418 
0.09418 
0.19699 
0.19699 
0.07968 
0.07968 
0.12173 
0.12173 
0.14498 
0.14498 
0.12308 
0.12308 
0.03533 
0.03533 
0.18926 
0.18926 
0.15708 
0.15708 
0.09354 
0.09354 
0.05183 
0.05183 
0.08958 
0.08958 
0.19095 
0.19095 
0.14095 
0.14095 
0.13678 
0.13678 
0.18817 
0.18817 
0.13699 
0.13699 
0.06444 
0.06444 
0.15369 
0.15369 
0.16559 
0.16559 
0.12196 
0.12196 
0.17233 
0.17233 
0.24312 
0.24312 
0.17249 
0.17249 
0.10207 
0.10207 
0.09504 
0.09504 
0.11245 
0.11245 
0.13558 
0.13558 
0.07030 
0.07030 
0.07799 
0.07799 
0.09575 
0.09575 
0.14868 
0.14868 
0.17918 
0.17918 
0.18942 
0.18942 
0.02532 
0.02532 
0.12480 
0.12480 
0.03357 
0.03357 
0.10341 
0.10341 
0.22282 
0.22282 
0.06793 
0.06793 
0.08844 
0.08844 
0.09753 
0.09753 
0.09010 
0.09010 
0.13435 
0.13435 
0.07273 
0.07273 
0.10942 
0.10942 
0.04470 
0.04470 
0.15821 
0.15821 
0.14655 
0.14655 
0.12033 
0.12033 
0.08670 
0.08670 
0.13698 
0.13698 
0.02499 
0.02499 
0.08813 
0.08813 
0.13328 
0.13328 
0.19004 
0.19004 
0.17634 
0.17634 
0.12212 
0.12212 
0.15570 
0.15570 
0.16179 
0.16179 
0.08693 
0.08693 
0.14737 
0.14737 
0.11129 
0.11129 
0.18757 
0.18757 
0.08893 
0.08893 
0.16432 
0.16432 
0.07345 
0.07345 
0.13136 
0.13136 
0.13359 
0.13359 
0.08029 
0.08029 
0.04691 
0.04691 
0.09518 
0.09518 
0.18508 
0.18508 
0.08964 
0.08964 
0.08355 
0.08355 
0.19192 
0.19192 
0.10092 
0.10092 
0.11585 
0.11585 
0.13832 
0.13832 
0.07772 
0.07772 
0.08334 
0.08334 
0.10058 
0.10058 
0.17273 
0.17273 
0.11737 
0.11737 
0.14866 
0.14866 
0.12579 
0.12579 
0.13793 
0.13793 
0.05091 
0.05091 
0.06755 
0.06755 
0.07711 
0.07711 
0.14928 
0.14928 
0.06765 
0.06765 
0.16296 
0.16296 
0.15196 
0.15196 
0.14804 
0.14804 
0.10256 
0.10256 
0.16877 
0.16877 
0.16303 
0.16303 
0.06720 
0.06720 
0.13431 
0.13431 
0.13384 
0.13384 
0.25166 
0.25166 
0.07615 
0.07615 
0.17114 
0.17114 
0.14954 
0.14954 
0.09974 
0.09974 
0.05807 
0.05807 
0.15976 
0.15976 
0.10693 
0.10693 
0.21606 
0.21606 
0.07829 
0.07829 
0.14393 
0.14393 
0.11230 
0.11230 
0.05398 
0.05398 
0.10094 
0.10094 
0.13725 
0.13725 
0.13185 
0.13185 
0.18494 
0.18494 
0.11167 
0.11167 
0.09316 
0.09316 
0.18275 
0.18275 
0.11391 
0.11391 
0.12405 
0.12405 
0.20938 
0.20938 
0.14179 
0.14179 
0.11690 
0.11690 
0.15290 
0.15290 
0.16527 
0.16527 
0.09246 
0.09246 
0.06265 
0.06265 
0.09223 
0.09223 
0.07132 
0.07132 
0.14945 
0.14945 
0.10472 
0.10472 
0.13429 
0.13429 
0.07512 
0.07512 
0.15040 
0.15040 
0.08614 
0.08614 
0.14363 
0.14363 
0.05690 
0.05690 
0.13069 
0.13069 
0.18875 
0.18875 
0.08064 
0.08064 
0.15482 
0.15482 
0.16712 
0.16712 
0.09150 
0.09150 
0.09509 
0.09509 
SCALARS Umean_X double 1 
LOOKUP_TABLE default
0.05100 
0.05100 
-0.01150 
-0.01150 
0.04450 
0.04450 
0.01300 
0.01300 
0.04450 
0.04450 
-0.01900 
-0.01900 
0.04550 
0.04550 
-0.02750 
-0.02750 
0.03300 
0.03300 
-0.01300 
-0.01300 
0.02700 
0.02700 
0.03900 
0.03900 
0.00250 
0.00250 
0.02350 
0.02350 
0.03050 
0.03050 
0.03550 
0.03550 
-0.02650 
-0.02650 
0.06400 
0.06400 
0.00050 
0.00050 
-0.02450 
-0.02450 
0.01550 
0.01550 
0.06300 
0.06300 
0.00650 
0.00650 
0.04650 
0.04650 
0.06750 
0.06750 
-0.02250 
-0.02250 
-0.09400 
-0.09400 
0.09200 
0.09200 
0.01900 
0.01900 
0.07950 
0.07950 
0.03000 
0.03000 
-0.03850 
-0.03850 
0.07600 
0.07600 
0.10800 
0.10800 
0.07450 
0.07450 
-0.00650 
-0.00650 
0.06250 
0.06250 
0.04300 
0.04300 
0.04050 
0.04050 
0.10000 
0.10000 
0.06300 
0.06300 
-0.00100 
-0.00100 
0.12150 
0.12150 
0.04050 
0.04050 
0.10150 
0.10150 
0.02250 
0.02250 
-0.02150 
-0.02150 
0.08350 
0.08350 
0.03550 
0.03550 
-0.06100 
-0.06100 
0.01600 
0.01600 
0.04450 
0.04450 
0.05000 
0.05000 
0.00850 
0.00850 
0.07850 
0.07850 
0.10400 
0.10400 
-0.02350 
-0.02350 
0.05300 
0.05300 
0.06800 
0.06800 
-0.02850 
-0.02850 
0.07050 
0.07050 
0.00350 
0.00350 
0.05350 
0.05350 
0.07800 
0.07800 
0.01950 
0.01950 
-0.00300 
-0.00300 
0.04650 
0.04650 
0.04450 
0.04450 
0.03750 
0.03750 
0.03000 
0.03000 
0.07350 
0.07350 
0.10400 
0.10400 
0.05550 
0.05550 
0.06100 
0.06100 
0.06050 
0.06050 
0.03050 
0.03050 
0.05550 
0.05550 
0.08500 
0.08500 
0.07100 
0.07100 
0.04800 
0.04800 
0.03150 
0.03150 
-0.01250 
-0.01250 
0.05950 
0.05950 
-0.01200 
-0.01200 
0.11300 
0.11300 
0.07500 
0.07500 
0.08450 
0.08450 
0.01500 
0.01500 
-0.04500 
-0.04500 
0.08250 
0.08250 
0.09450 
0.09450 
0.12500 
0.12500 
0.04000 
0.04000 
-0.02650 
-0.02650 
0.02850 
0.02850 
0.04700 
0.04700 
0.03850 
0.03850 
0.02650 
0.02650 
0.06850 
0.06850 
0.06200 
0.06200 
-0.03600 
-0.03600 
0.07700 
0.07700 
0.01000 
0.01000 
0.08600 
0.08600 
0.03900 
0.03900 
0.04350 
0.04350 
0.08550 
0.08550 
0.04100 
0.04100 
0.11300 
0.11300 
0.07800 
0.07800 
0.08550 
0.08550 
-0.00100 
-0.00100 
0.11600 
0.11600 
0.06800 
0.06800 
0.01550 
0.01550 
0.13800 
0.13800 
0.09950 
0.09950 
-0.02900 
-0.02900 
-0.00350 
-0.00350 
-0.01300 
-0.01300 
-0.01500 
-0.01500 
0.07250 
0.07250 
0.05150 
0.05150 
0.02700 
0.02700 
0.10900 
0.10900 
0.04750 
0.04750 
0.09600 
0.09600 
-0.01900 
-0.01900 
0.09700 
0.09700 
0.02000 
0.02000 
0.04400 
0.04400 
0.07050 
0.07050 
-0.00250 
-0.00250 
0.05000 
0.05000 
0.08750 
0.08750 
0.07350 
0.07350 
0.07200 
0.07200 
0.02350 
0.02350 
0.09750 
0.09750 
0.11700 
0.11700 
-0.04900 
-0.04900 
0.10450 
0.10450 
0.02800 
0.02800 
0.03300 
0.03300 
0.08800 
0.08800 
0.11500 
0.11500 
0.03250 
0.03250 
0.14150 
0.14150 
0.00500 
0.00500 
0.02450 
0.02450 
0.05000 
0.05000 
0.01850 
0.01850 
0.12950 
0.12950 
-0.00300 
-0.00300 
0.12150 
0.12150 
0.05850 
0.05850 
0.00550 
0.00550 
0.05400 
0.05400 
0.06850 
0.06850 
0.00850 
0.00850 
0.01500 
0.01500 
0.07350 
0.07350 
0.08550 
0.08550 
0.07450 
0.07450 
0.07050 
0.07050 
0.07300 
0.07300 
0.08300 
0.08300 
0.00150 
0.00150 
0.00100 
0.00100 
0.10200 
0.10200 
-0.03100 
-0.03100 
0.07950 
0.07950 
0.07750 
0.07750 
-0.06350 
-0.06350 
0.07400 
0.07400 
-0.01700 
-0.01700 
0.02400 
0.02400 
0.04750 
0.04750 
0.01200 
0.01200 
0.06100 
0.06100 
0.01550 
0.01550 
0.09300 
0.09300 
-0.01300 
-0.01300 
-0.00550 
-0.00550 
0.10150 
0.10150 
0.07650 
0.07650 
0.10950 
0.10950 
0.01750 
0.01750 
0.04900 
0.04900 
0.02650 
0.02650 
0.05000 
0.05000 
0.01150 
0.01150 
0.07900 
0.07900 
-0.03450 
-0.03450 
0.09200 
0.09200 
0.07700 
0.07700 
0.10250 
0.10250 
-0.01150 
-0.01150 
0.06950 
0.06950 
0.18100 
0.18100 
0.05550 
0.05550 
0.12450 
0.12450 
0.09500 
0.09500 
0.08100 
0.08100 
0.06700 
0.06700 
0.08100 
0.08100 
0.06800 
0.06800 
0.01450 
0.01450 
-0.00650 
-0.00650 
0.10250 
0.10250 
0.01950 
0.01950 
0.05900 
0.05900 
-0.00950 
-0.00950 
0.02550 
0.02550 
0.03500 
0.03500 
0.05500 
0.05500 
0.09950 
0.09950 
0.08250 
0.08250 
0.18950 
0.18950 
0.00050 
0.00050 
0.00550 
0.00550 
0.02850 
0.02850 
-0.01500 
-0.01500 
0.05650 
0.05650 
0.05950 
0.05950 
-0.00450 
-0.00450 
0.06200 
0.06200 
0.01000 
0.01000 
0.09150 
0.09150 
0.05250 
0.05250 
0.14100 
0.14100 
0.06950 
0.06950 
0.02700 
0.02700 
0.08550 
0.08550 
-0.01350 
-0.01350 
0.01550 
0.01550 
0.03650 
0.03650 
0.12250 
0.12250 
0.01050 
0.01050 
0.03450 
0.03450 
0.11100 
0.11100 
0.08900 
0.08900 
0.03950 
0.03950 
0.06300 
0.06300 
0.02650 
0.02650 
0.15150 
0.15150 
0.01550 
0.01550 
0.05900 
0.05900 
0.02700 
0.02700 
0.10850 
0.10850 
0.05650 
0.05650 
-0.05200 
-0.05200 
-0.00250 
-0.00250 
0.05550 
0.05550 
0.07500 
0.07500 
-0.02250 
-0.02250 
0.04150 
0.04150 
0.01500 
0.01500 
0.06900 
0.06900 
0.01000 
0.01000 
0.07900 
0.07900 
0.07050 
0.07050 
0.09500 
0.09500 
0.03200 
0.03200 
-0.03800 
-0.03800 
0.10900 
0.10900 
0.01050 
0.01050 
0.07850 
0.07850 
0.09500 
0.09500 
-0.00800 
-0.00800 
0.01500 
0.01500 
0.09900 
0.09900 
0.04350 
0.04350 
-0.07650 
-0.07650 
0.04150 
0.04150 
0.08700 
0.08700 
0.00950 
0.00950 
0.01450 
0.01450 
0.03900 
0.03900 
0.04450 
0.04450 
0.00800 
0.00800 
0.11150 
0.11150 
0.11400 
0.11400 
0.01600 
0.01600 
0.11050 
0.11050 
0.00600 
0.00600 
0.13400 
0.13400 
0.05900 
0.05900 
0.02850 
0.02850 
0.01600 
0.01600 
0.05900 
0.05900 
0.03350 
0.03350 
0.00400 
0.00400 
0.02500 
0.02500 
0.05950 
0.05950 
-0.02150 
-0.02150 
0.03350 
0.03350 
0.03500 
0.03500 
0.09000 
0.09000 
-0.02300 
-0.02300 
0.04650 
0.04650 
0.07300 
0.07300 
0.07300 
0.07300 
0.06150 
0.06150 
0.00550 
0.00550 
0.08450 
0.08450 
-0.00900 
-0.00900 
0.07450 
0.07450 
0.02550 
0.02550 
0.06050 
0.06050 
0.09850 
0.09850 
-0.03800 
-0.03800 
0.10250 
0.10250 
0.03550 
0.03550 
0.07000 
0.07000 
0.06550 
0.06550 
-0.06200 
-0.06200 
-0.01000 
-0.01000 
-0.01550 
-0.01550 
-0.00100 
-0.00100 
0.07150 
0.07150 
0.08250 
0.08250 
-0.12300 
-0.12300 
0.05400 
0.05400 
-0.05250 
-0.05250 
0.03050 
0.03050 
0.01450 
0.01450 
0.08050 
0.08050 
0.04200 
0.04200 
0.11500 
0.11500 
0.03450 
0.03450 
0.07050 
0.07050 
0.09200 
0.09200 
0.11400 
0.11400 
0.03700 
0.03700 
0.13300 
0.13300 
0.03600 
0.03600 
0.08700 
0.08700 
0.07800 
0.07800 
0.08850 
0.08850 
0.03050 
0.03050 
0.04000 
0.04000 
0.12150 
0.12150 
0.09400 
0.09400 
0.04250 
0.04250 
-0.00200 
-0.00200 
0.05800 
0.05800 
0.00300 
0.00300 
0.11700 
0.11700 
0.03350 
0.03350 
0.05200 
0.05200 
-0.01650 
-0.01650 
0.07200 
0.07200 
-0.02100 
-0.02100 
0.03600 
0.03600 
0.05300 
0.05300 
0.01450 
0.01450 
0.03700 
0.03700 
0.02000 
0.02000 
0.04700 
0.04700 
-0.02850 
-0.02850 
0.06050 
0.06050 
0.00550 
0.00550 
0.03000 
0.03000 
0.15600 
0.15600 
-0.01100 
-0.01100 
0.02850 
0.02850 
0.12200 
0.12200 
0.00300 
0.00300 
0.02250 
0.02250 
0.10600 
0.10600 
0.09000 
0.09000 
0.10150 
0.10150 
0.14800 
0.14800 
0.03850 
0.03850 
0.02150 
0.02150 
0.05300 
0.05300 
0.04750 
0.04750 
0.05650 
0.05650 
0.04250 
0.04250 
0.05600 
0.05600 
0.00750 
0.00750 
-0.04500 
-0.04500 
0.10750 
0.10750 
0.00050 
0.00050 
-0.00250 
-0.00250 
0.01550 
0.01550 
0.09800 
0.09800 
0.01900 
0.01900 
-0.02650 
-0.02650 
0.16650 
0.16650 
-0.04700 
-0.04700 
0.00250 
0.00250 
0.01400 
0.01400 
0.06800 
0.06800 
-0.02500 
-0.02500 
-0.01000 
-0.01000 
0.03850 
0.03850 
-0.00700 
-0.00700 
0.07800 
0.07800 
0.11200 
0.11200 
0.08200 
0.08200 
0.00150 
0.00150 
0.05000 
0.05000 
0.02200 
0.02200 
0.03600 
0.03600 
0.06400 
0.06400 
0.07600 
0.07600 
0.10400 
0.10400 
0.10800 
0.10800 
-0.02500 
-0.02500 
0.08550 
0.08550 
0.05350 
0.05350 
0.13100 
0.13100 
0.03550 
0.03550 
0.09050 
0.09050 
0.07800 
0.07800 
0.11900 
0.11900 
0.04300 
0.04300 
-0.03750 
-0.03750 
0.03400 
0.03400 
-0.02050 
-0.02050 
0.03850 
0.03850 
-0.02150 
-0.02150 
0.09400 
0.09400 
0.00500 
0.00500 
0.05500 
0.05500 
0.10300 
0.10300 
0.09200 
0.09200 
-0.05550 
-0.05550 
0.04850 
0.04850 
0.04600 
0.04600 
0.02000 
0.02000 
0.08250 
0.08250 
0.10400 
0.10400 
0.08250 
0.08250 
0.06250 
0.06250 
0.02900 
0.02900 
-0.03800 
-0.03800 
0.02100 
0.02100 
0.05300 
0.05300 
0.05300 
0.05300 
0.13500 
0.13500 
-0.04800 
-0.04800 
0.08300 
0.08300 
-0.03950 
-0.03950 
0.05600 
0.05600 
0.04900 
0.04900 
0.13400 
0.13400 
0.08950 
0.08950 
0.04200 
0.04200 
-0.03950 
-0.03950 
0.02450 
0.02450 
0.15550 
0.15550 
-0.03050 
-0.03050 
0.02850 
0.02850 
0.02450 
0.02450 
0.02000 
0.02000 
0.01400 
0.01400 
0.09900 
0.09900 
0.01300 
0.01300 
-0.04750 
-0.04750 
0.05800 
0.05800 
0.06800 
0.06800 
-0.06700 
-0.06700 
0.02150 
0.02150 
0.02150 
0.02150 
0.09700 
0.09700 
0.07050 
0.07050 
0.14550 
0.14550 
0.05150 
0.05150 
0.06050 
0.06050 
0.09650 
0.09650 
0.05800 
0.05800 
0.02250 
0.02250 
0.08700 
0.08700 
0.06150 
0.06150 
0.06700 
0.06700 
0.09050 
0.09050 
0.12700 
0.12700 
0.08300 
0.08300 
-0.01550 
-0.01550 
0.05300 
0.05300 
0.03350 
0.03350 
0.08650 
0.08650 
0.01150 
0.01150 
-0.02950 
-0.02950 
0.07350 
0.07350 
0.07050 
0.07050 
-0.03450 
-0.03450 
0.06400 
0.06400 
0.00500 
0.00500 
0.06750 
0.06750 
0.06100 
0.06100 
0.05950 
0.05950 
0.09900 
0.09900 
0.09000 
0.09000 
0.08050 
0.08050 
-0.03900 
-0.03900 
SCALARS Umean_Y double 1 
LOOKUP_TABLE default
0.04300 
0.04300 
0.11250 
0.11250 
0.14300 
0.14300 
0.11500 
0.11500 
0.02800 
0.02800 
0.14600 
0.14600 
0.08100 
0.08100 
0.08250 
0.08250 
0.07400 
0.07400 
0.08950 
0.08950 
0.06300 
0.06300 
0.13850 
0.13850 
0.11750 
0.11750 
0.15800 
0.15800 
0.19000 
0.19000 
0.10050 
0.10050 
0.10750 
0.10750 
0.11800 
0.11800 
0.08300 
0.08300 
0.10800 
0.10800 
0.08800 
0.08800 
0.15550 
0.15550 
0.18300 
0.18300 
0.11450 
0.11450 
0.10600 
0.10600 
0.04750 
0.04750 
-0.05150 
-0.05150 
0.13600 
0.13600 
0.12150 
0.12150 
0.05050 
0.05050 
0.11200 
0.11200 
0.02500 
0.02500 
0.10350 
0.10350 
0.10250 
0.10250 
0.16550 
0.16550 
0.05850 
0.05850 
0.10500 
0.10500 
0.13000 
0.13000 
0.07850 
0.07850 
0.06400 
0.06400 
0.13700 
0.13700 
0.15000 
0.15000 
0.09050 
0.09050 
0.04750 
0.04750 
0.06000 
0.06000 
0.09300 
0.09300 
0.13000 
0.13000 
0.08800 
0.08800 
0.04650 
0.04650 
0.07600 
0.07600 
0.12350 
0.12350 
0.16350 
0.16350 
0.07200 
0.07200 
0.04400 
0.04400 
0.07150 
0.07150 
0.12200 
0.12200 
0.11500 
0.11500 
0.12750 
0.12750 
0.08800 
0.08800 
0.13300 
0.13300 
0.04000 
0.04000 
0.09500 
0.09500 
0.06550 
0.06550 
0.07600 
0.07600 
0.13250 
0.13250 
0.12600 
0.12600 
0.12100 
0.12100 
0.04200 
0.04200 
0.12150 
0.12150 
0.09500 
0.09500 
0.07150 
0.07150 
0.11650 
0.11650 
0.09300 
0.09300 
0.08050 
0.08050 
0.09850 
0.09850 
0.06900 
0.06900 
0.09650 
0.09650 
0.16400 
0.16400 
0.13650 
0.13650 
0.11500 
0.11500 
0.07150 
0.07150 
0.10050 
0.10050 
0.07100 
0.07100 
-0.02650 
-0.02650 
0.10850 
0.10850 
0.08350 
0.08350 
0.12100 
0.12100 
0.06350 
0.06350 
0.01600 
0.01600 
0.04150 
0.04150 
0.12400 
0.12400 
0.05000 
0.05000 
0.09200 
0.09200 
0.08300 
0.08300 
0.01500 