# vtk DataFile Version 2.1 
Trajects from timestep 127 with color option 
ASCII 
 
DATASET POLYDATA POINTS 1054 float 
-3.282 5.435 -72.285 
-3.113 5.678 -72.511 
6.125 2.672 -73.501 
6.205 2.812 -73.669 
0.323 9.322 -68.010 
0.344 9.519 -67.990 
4.306 7.455 -69.303 
4.365 7.669 -69.352 
-0.288 7.576 -71.261 
-0.244 7.794 -71.244 
-6.340 -0.764 -73.413 
-6.341 -0.482 -73.467 
-13.031 -0.841 -72.820 
-13.014 -0.582 -72.889 
7.045 7.093 -68.944 
7.091 7.277 -69.088 
4.221 3.681 -70.081 
4.404 3.920 -70.243 
-0.217 -9.717 -71.460 
-0.052 -9.651 -71.601 
-0.757 7.152 -66.214 
-0.789 7.423 -66.135 
-10.195 -2.864 -76.674 
-10.215 -2.519 -76.704 
-0.684 -0.534 -68.423 
-0.604 -0.231 -68.769 
6.680 12.477 -69.043 
6.552 12.408 -69.112 
8.247 5.458 -67.063 
8.149 5.707 -67.092 
-0.241 5.576 -69.540 
-0.118 5.791 -69.615 
-6.867 4.467 -69.685 
-6.838 4.842 -69.857 
1.703 9.659 -67.441 
1.686 9.826 -67.391 
-4.478 -7.964 -76.301 
-4.368 -7.734 -76.435 
0.202 -4.434 -69.623 
0.414 -4.270 -69.850 
-0.234 4.717 -66.965 
-0.213 4.875 -67.045 
-6.834 -11.913 -69.279 
-6.677 -11.862 -69.455 
-8.491 10.334 -67.751 
-8.548 10.558 -67.584 
0.998 10.674 -69.278 
1.016 10.878 -69.298 
8.083 -2.744 -69.956 
8.319 -2.644 -70.224 
-3.398 -3.338 -73.747 
-3.359 -3.156 -73.794 
2.450 2.142 -67.633 
2.638 2.426 -67.668 
-12.194 5.478 -71.388 
-12.128 5.750 -71.518 
-11.919 1.072 -69.530 
-11.776 1.470 -69.790 
-0.875 5.873 -70.838 
-0.838 6.046 -70.858 
-12.391 0.251 -72.333 
-12.331 0.534 -72.489 
-3.634 9.043 -61.544 
-3.689 9.290 -61.406 
7.335 3.797 -74.021 
7.527 4.061 -74.225 
-7.155 3.560 -65.389 
-7.128 3.718 -65.455 
1.108 10.019 -74.644 
1.173 10.224 -74.650 
1.624 11.711 -69.100 
1.655 11.845 -69.016 
-1.197 1.699 -72.069 
-1.101 2.027 -72.093 
3.170 7.381 -69.429 
3.214 7.542 -69.463 
1.583 11.102 -65.398 
1.582 11.271 -65.277 
1.694 7.250 -69.801 
1.654 7.436 -69.803 
-1.623 12.336 -65.069 
-1.645 12.559 -64.938 
-6.304 2.124 -75.991 
-6.179 2.227 -76.040 
-3.360 11.116 -66.957 
-3.311 11.239 -66.831 
-1.349 -0.923 -69.200 
-1.297 -0.668 -69.387 
1.532 12.101 -66.354 
1.542 12.219 -66.236 
2.934 3.175 -69.628 
3.128 3.435 -69.791 
8.165 -1.809 -72.151 
8.308 -1.596 -72.434 
0.629 7.679 -63.748 
0.599 7.830 -63.790 
-5.125 8.307 -72.393 
-5.060 8.465 -72.410 
-4.551 -10.641 -71.168 
-4.516 -10.461 -71.317 
-6.173 12.132 -68.203 
-6.104 12.203 -68.119 
4.497 11.589 -71.991 
4.350 11.631 -72.127 
1.972 8.423 -72.472 
1.948 8.594 -72.499 
-12.042 -2.665 -70.635 
-11.827 -2.533 -70.619 
10.086 -3.977 -72.550 
10.121 -3.862 -72.910 
10.274 5.661 -68.224 
10.335 5.842 -68.319 
-16.059 -7.119 -74.317 
-16.028 -6.917 -74.259 
5.291 9.927 -64.767 
5.359 10.082 -64.748 
10.040 1.292 -68.562 
10.078 1.593 -68.611 
5.987 1.123 -71.840 
6.098 1.288 -72.071 
-1.943 0.969 -65.292 
-1.893 1.053 -65.333 
-5.794 6.545 -65.698 
-5.736 6.808 -65.738 
-7.193 9.011 -64.436 
-7.233 9.264 -64.392 
-2.127 -11.532 -72.699 
-1.966 -11.435 -72.719 
-12.812 -3.209 -71.842 
-12.480 -3.104 -71.805 
-10.471 8.182 -67.654 
-10.395 8.444 -67.543 
-8.386 -4.234 -68.519 
-8.129 -4.065 -68.703 
0.770 9.817 -67.865 
0.771 9.986 -67.822 
-8.107 6.677 -62.215 
-8.232 6.888 -62.314 
-10.324 10.860 -70.480 
-10.253 11.192 -70.287 
-1.051 -7.152 -67.755 
-0.936 -7.214 -67.940 
10.439 -0.159 -65.335 
10.530 0.050 -65.372 
14.607 6.560 -69.386 
14.841 6.618 -69.593 
7.521 9.416 -65.146 
7.562 9.512 -65.134 
-1.226 -0.889 -72.938 
-1.052 -0.667 -73.203 
-3.226 -3.830 -64.044 
-3.086 -3.645 -64.530 
-7.402 6.216 -63.849 
-7.444 6.376 -63.891 
-9.491 -7.791 -69.413 
-9.401 -7.656 -69.586 
-4.527 5.841 -63.904 
-4.539 6.073 -63.857 
6.943 -7.478 -68.705 
7.175 -7.305 -68.963 
-9.778 2.935 -74.038 
-9.754 3.112 -74.258 
-11.120 -12.132 -67.017 
-11.083 -12.267 -67.057 
-3.011 10.261 -61.546 
-3.100 10.387 -61.370 
9.482 -7.436 -70.255 
9.597 -7.362 -70.555 
4.599 -2.862 -68.222 
4.861 -2.567 -68.352 
5.225 -11.513 -69.494 
5.292 -11.417 -69.595 
-12.548 8.580 -70.501 
-12.647 8.841 -70.467 
6.074 -11.673 -69.642 
6.108 -11.650 -69.820 
-4.583 -6.707 -68.737 
-4.312 -6.673 -69.004 
-14.126 5.546 -73.998 
-14.199 5.610 -74.060 
0.221 -8.833 -70.795 
0.347 -8.759 -70.970 
-3.056 9.369 -68.704 
-3.104 9.604 -68.744 
12.014 -2.278 -65.225 
12.099 -2.074 -65.301 
-5.724 9.569 -62.744 
-5.741 9.788 -62.658 
-7.361 -7.441 -69.091 
-7.373 -7.318 -69.180 
6.036 -7.310 -68.774 
6.390 -7.211 -69.006 
-5.365 -0.452 -65.300 
-5.391 -0.252 -65.778 
-4.750 -7.658 -64.153 
-4.541 -7.496 -64.082 
-6.836 -7.810 -68.239 
-6.826 -7.661 -68.340 
-7.200 -6.360 -66.874 
-6.895 -6.234 -67.049 
8.809 0.622 -73.240 
8.988 0.860 -73.549 
4.361 2.828 -71.761 
4.525 3.124 -71.936 
-8.428 2.615 -66.331 
-8.474 2.798 -66.468 
-4.309 -3.663 -70.465 
-4.326 -3.609 -70.875 
6.510 8.217 -76.656 
6.687 8.441 -77.012 
14.422 -12.350 -69.847 
14.553 -12.257 -69.936 
-14.019 -5.999 -72.727 
-13.885 -5.934 -72.865 
-4.211 -1.487 -60.180 
-3.971 -1.194 -60.460 
4.904 1.476 -65.585 
5.026 1.437 -65.814 
9.926 5.275 -63.897 
10.024 5.520 -63.984 
-10.698 1.686 -63.703 
-10.724 1.817 -64.010 
-3.949 -8.147 -69.034 
-3.947 -8.252 -69.222 
8.332 3.860 -70.329 
8.431 4.210 -70.631 
6.292 3.814 -73.338 
6.420 4.010 -73.606 
-8.079 11.915 -65.973 
-8.125 12.205 -65.887 
10.357 -1.916 -70.665 
10.436 -1.819 -70.835 
10.206 0.774 -67.950 
10.276 1.066 -67.982 
4.597 3.067 -65.379 
4.685 3.160 -65.488 
-7.730 7.746 -69.020 
-7.678 8.006 -69.050 
6.703 -10.143 -66.383 
6.959 -10.108 -66.384 
2.360 12.059 -61.592 
2.286 12.235 -61.565 
0.799 -2.076 -69.380 
0.902 -1.941 -69.518 
7.177 -7.683 -71.329 
7.359 -7.585 -71.765 
1.842 -10.195 -66.204 
2.073 -10.173 -66.282 
-0.940 -11.379 -68.156 
-0.828 -11.281 -68.235 
-4.692 -0.147 -66.966 
-4.562 0.161 -67.147 
-13.470 9.859 -72.811 
-13.438 9.953 -72.724 
-4.036 7.056 -62.270 
-4.098 7.322 -62.207 
-11.554 4.378 -71.451 
-11.410 4.523 -71.655 
-11.608 4.922 -63.410 
-11.566 5.004 -63.524 
-8.757 6.681 -64.878 
-8.772 6.838 -64.877 
5.926 -0.397 -75.914 
6.007 -0.165 -76.033 
-4.131 -3.866 -65.220 
-3.849 -3.883 -65.688 
-1.748 -3.968 -63.951 
-1.584 -3.845 -64.559 
-6.762 6.887 -60.689 
-6.811 7.014 -60.586 
10.691 -1.108 -64.377 
10.836 -0.906 -64.477 
3.494 6.285 -67.877 
3.505 6.393 -68.004 
0.214 1.644 -63.190 
0.375 1.967 -63.296 
-12.505 -4.423 -74.506 
-12.425 -4.240 -74.687 
-8.995 -6.634 -70.648 
-8.968 -6.557 -70.751 
8.897 7.263 -66.072 
8.993 7.462 -66.127 
5.971 7.022 -74.448 
6.068 7.234 -74.599 
7.937 -10.054 -70.636 
8.072 -9.965 -70.893 
-9.704 -8.847 -67.406 
-9.487 -8.709 -67.758 
-0.041 -5.173 -64.392 
0.244 -4.933 -64.836 
12.052 9.014 -69.925 
12.229 8.981 -70.064 
14.977 3.092 -72.902 
14.847 3.044 -72.882 
-9.239 -6.640 -67.123 
-9.162 -6.486 -67.236 
-10.683 -0.095 -63.601 
-10.591 0.089 -63.912 
-11.934 5.824 -66.269 
-11.911 6.012 -66.224 
-7.297 -5.218 -67.326 
-7.037 -5.010 -67.437 
3.447 -2.985 -70.202 
3.753 -2.789 -70.377 
12.251 -0.426 -68.035 
12.261 -0.241 -68.036 
14.692 -10.454 -69.820 
14.840 -10.330 -69.958 
12.890 5.940 -66.681 
13.100 6.113 -66.800 
-2.967 -9.967 -65.218 
-2.872 -9.826 -65.246 
-6.258 5.039 -60.769 
-6.277 5.179 -60.857 
-0.076 -7.070 -69.835 
0.061 -7.008 -69.884 
-5.772 -12.264 -67.680 
-5.599 -12.101 -67.768 
8.042 12.073 -69.702 
7.932 11.796 -69.889 
-10.319 -0.807 -73.590 
-10.295 -0.539 -73.769 
8.198 -1.066 -70.062 
8.422 -0.867 -70.205 
12.718 7.774 -70.423 
12.812 7.609 -70.609 
-12.797 10.449 -68.380 
-12.922 10.780 -68.295 
1.983 -12.705 -65.362 
2.094 -12.633 -65.365 
0.635 -9.477 -68.431 
0.771 -9.424 -68.612 
1.644 -11.013 -68.967 
1.829 -10.929 -68.985 
12.367 -8.542 -70.051 
12.376 -8.450 -70.266 
-0.157 -2.585 -66.492 
0.072 -2.309 -66.911 
-13.199 -9.856 -70.195 
-13.054 -9.875 -70.177 
4.706 9.167 -73.074 
4.717 9.288 -73.111 
12.150 -3.707 -65.039 
12.243 -3.511 -65.102 
4.341 4.808 -66.637 
4.410 4.997 -66.652 
13.093 -4.280 -69.000 
13.237 -4.397 -69.125 
-6.279 -3.186 -75.290 
-6.136 -2.907 -75.322 
-4.717 5.571 -72.148 
-4.522 5.797 -72.241 
-9.515 0.263 -71.892 
-9.490 0.487 -72.013 
0.618 -11.850 -74.843 
0.852 -11.694 -74.730 
-15.773 6.526 -73.008 
-15.888 6.665 -72.986 
-11.339 7.887 -71.146 
-11.412 8.106 -71.024 
6.356 10.301 -70.150 
6.277 10.366 -70.132 
-7.678 2.130 -60.854 
-7.573 2.293 -60.989 
-7.866 -11.176 -69.436 
-7.730 -11.131 -69.559 
13.341 2.508 -67.152 
13.429 2.742 -67.179 
-11.416 7.785 -75.631 
-11.439 7.943 -75.763 
2.696 1.993 -67.844 
2.888 2.308 -67.908 
6.117 -4.910 -68.135 
6.494 -4.687 -68.276 
-14.755 9.007 -71.504 
-14.788 9.266 -71.671 
5.308 -12.601 -67.587 
5.483 -12.561 -67.723 
-2.826 -5.448 -66.073 
-2.670 -5.401 -66.219 
8.433 -3.687 -65.486 
8.487 -3.475 -65.605 
-10.868 6.809 -68.846 
-10.676 7.192 -68.721 
5.649 7.895 -69.268 
5.747 8.111 -69.416 
-7.033 -6.423 -68.642 
-6.890 -6.269 -68.774 
10.063 0.338 -61.497 
10.108 0.556 -61.442 
-2.812 -13.024 -65.036 
-2.755 -12.963 -65.225 
8.564 0.714 -68.462 
8.867 0.950 -68.590 
-2.081 -10.070 -65.557 
-2.012 -9.972 -65.555 
12.602 -5.234 -71.336 
12.748 -5.307 -71.422 
-0.162 4.680 -65.530 
-0.149 4.945 -65.603 
3.782 -2.068 -63.741 
4.161 -1.932 -64.212 
5.427 5.881 -58.253 
5.518 6.061 -58.174 
-13.127 -9.181 -67.336 
-13.150 -9.116 -67.623 
1.725 -0.738 -76.976 
1.790 -0.609 -77.042 
-9.120 -5.744 -68.024 
-8.926 -5.545 -68.106 
-5.546 -6.453 -61.690 
-5.449 -6.169 -61.941 
3.873 8.559 -64.699 
3.839 8.764 -64.764 
7.479 -4.162 -64.535 
7.682 -3.967 -64.683 
-7.160 0.500 -63.196 
-7.197 0.609 -63.436 
14.144 7.512 -67.221 
14.358 7.539 -67.362 
10.296 -7.753 -70.760 
10.365 -7.742 -70.854 
-3.310 -11.302 -65.499 
-3.190 -11.364 -65.655 
11.435 -1.025 -68.151 
11.425 -0.878 -68.054 
7.691 -0.040 -60.640 
7.759 0.104 -60.695 
-9.792 -4.216 -66.942 
-9.595 -3.912 -67.168 
-16.105 -10.437 -73.143 
-15.997 -10.165 -73.111 
-2.067 7.947 -62.370 
-2.110 8.142 -62.395 
-0.512 2.469 -77.333 
-0.478 2.634 -77.290 
-2.325 -5.671 -72.544 
-2.203 -5.409 -72.641 
0.676 9.079 -62.163 
0.619 9.205 -62.079 
[...]
POINT_DATA 1054 
SCALARS Umean double 1 
LOOKUP_TABLE default
0.18620 
0.18620 
0.11643 
0.11643 
0.09956 
0.09956 
0.11366 
0.11366 
0.11152 
0.11152 
0.14356 
0.14356 
0.13429 
0.13429 
0.11907 
0.11907 
0.17092 
0.17092 
0.11343 
0.11343 
0.14204 
0.14204 
0.17344 
0.17344 
0.23341 
0.23341 
0.08048 
0.08048 
0.13458 
0.13458 
0.12940 
0.12940 
0.20679 
0.20679 
0.08758 
0.08758 
0.14401 
0.14401 
0.17562 
0.17562 
0.08917 
0.08917 
0.12065 
0.12065 
0.14258 
0.14258 
0.10288 
0.10288 
0.18542 
0.18542 
0.09599 
0.09599 
0.17119 
0.17119 
0.15430 
0.15430 
0.24822 
0.24822 
0.08902 
0.08902 
0.16434 
0.16434 
0.14412 
0.14412 
0.19247 
0.19247 
0.08667 
0.08667 
0.10757 
0.10757 
0.08058 
0.08058 
0.17130 
0.17130 
0.08517 
0.08517 
0.10393 
0.10393 
0.09513 
0.09513 
0.12978 
0.12978 
0.08461 
0.08461 
0.09139 
0.09139 
0.16023 
0.16023 
0.08359 
0.08359 
0.18152 
0.18152 
0.19099 
0.19099 
0.07979 
0.07979 
0.08585 
0.08585 
0.11814 
0.11814 
0.06492 
0.06492 
0.10231 
0.10231 
0.08739 
0.08739 
0.12640 
0.12640 
0.18977 
0.18977 
0.10666 
0.10666 
0.10622 
0.10622 
0.08516 
0.08516 
0.15366 
0.15366 
0.15240 
0.15240 
0.05300 
0.05300 
0.13614 
0.13614 
0.12995 
0.12995 
0.09451 
0.09451 
0.17508 
0.17508 
0.14726 
0.14726 
0.17921 
0.17921 
0.08719 
0.08719 
0.13224 
0.13224 
0.19527 
0.19527 
0.11324 
0.11324 
0.11547 
0.11547 
0.15888 
0.15888 
0.05254 
0.05254 
0.19351 
0.19351 
0.26927 
0.26927 
0.08533 
0.08533 
0.11859 
0.11859 
0.11851 
0.11851 
0.19385 
0.19385 
0.14169 
0.14169 
0.07279 
0.07279 
0.11702 
0.11702 
0.16485 
0.16485 
0.20771 
0.20771 
0.07731 
0.07731 
0.14060 
0.14060 
0.09134 
0.09134 
0.19098 
0.19098 
0.05760 
0.05760 
0.11399 
0.11399 
0.12158 
0.12158 
0.11685 
0.11685 
0.11795 
0.11795 
0.07615 
0.07615 
0.21734 
0.21734 
0.25940 
0.25940 
0.13690 
0.13690 
0.09014 
0.09014 
0.18677 
0.18677 
0.21457 
0.21457 
0.19048 
0.19048 
0.11659 
0.11659 
0.20695 
0.20695 
0.22817 
0.22817 
0.09183 
0.09183 
0.10152 
0.10152 
0.23550 
0.23550 
0.13119 
0.13119 
0.13892 
0.13892 
0.16740 
0.16740 
0.10767 
0.10767 
0.23638 
0.23638 
0.17792 
0.17792 
0.15298 
0.15298 
0.10553 
0.10553 
0.15099 
0.15099 
0.08407 
0.08407 
0.13342 
0.13342 
0.12919 
0.12919 
0.09641 
0.09641 
0.10941 
0.10941 
0.24126 
0.24126 
0.12240 
0.12240 
0.08425 
0.08425 
0.19008 
0.19008 
0.06601 
0.06601 
0.14015 
0.14015 
0.14438 
0.14438 
0.07329 
0.07329 
0.07886 
0.07886 
0.13652 
0.13652 
0.27333 
0.27333 
0.32081 
0.32081 
0.08535 
0.08535 
0.13400 
0.13400 
0.08354 
0.08354 
0.18807 
0.18807 
0.13477 
0.13477 
0.06570 
0.06570 
0.11384 
0.11384 
0.13888 
0.13888 
0.15182 
0.15182 
0.21797 
0.21797 
0.28981 
0.28981 
0.11373 
0.11373 
0.07001 
0.07001 
0.10297 
0.10297 
0.18644 
0.18644 
0.09734 
0.09734 
0.17549 
0.17549 
0.20167 
0.20167 
0.09264 
0.09264 
0.11866 
0.11866 
0.14848 
0.14848 
0.08615 
0.08615 
0.08322 
0.08322 
0.07908 
0.07908 
0.12673 
0.12673 
0.17592 
0.17592 
0.16159 
0.16159 
0.16600 
0.16600 
0.13291 
0.13291 
0.18194 
0.18194 
0.06617 
0.06617 
0.11626 
0.11626 
0.10199 
0.10199 
0.11701 
0.11701 
0.27576 
0.27576 
0.07367 
0.07367 
0.06350 
0.06350 
0.11295 
0.11295 
0.10088 
0.10088 
0.11186 
0.11186 
0.15757 
0.15757 
0.15632 
0.15632 
0.12791 
0.12791 
0.15154 
0.15154 
0.09087 
0.09087 
0.13055 
0.13055 
0.05194 
0.05194 
0.11813 
0.11813 
0.09441 
0.09441 
0.12573 
0.12573 
0.10358 
0.10358 
0.18721 
0.18721 
0.23008 
0.23008 
0.15497 
0.15497 
0.11261 
0.11261 
0.10939 
0.10939 
0.12452 
0.12452 
0.22315 
0.22315 
0.13979 
0.13979 
0.12409 
0.12409 
0.11465 
0.11465 
0.10331 
0.10331 
0.20242 
0.20242 
0.05994 
0.05994 
0.09225 
0.09225 
0.13759 
0.13759 
0.30983 
0.30983 
0.10831 
0.10831 
0.14758 
0.14758 
0.07941 
0.07941 
0.14488 
0.14488 
0.19562 
0.19562 
0.10886 
0.10886 
0.15901 
0.15901 
0.13309 
0.13309 
0.12885 
0.12885 
0.05856 
0.05856 
0.10317 
0.10317 
0.08820 
0.08820 
0.08424 
0.08424 
0.21348 
0.21348 
0.14720 
0.14720 
0.10062 
0.10062 
0.08693 
0.08693 
0.15243 
0.15243 
0.08090 
0.08090 
0.07609 
0.07609 
0.10505 
0.10505 
0.20607 
0.20607 
0.07498 
0.07498 
0.15451 
0.15451 
0.05057 
0.05057 
0.16148 
0.16148 
0.16962 
0.16962 
0.10006 
0.10006 
0.22942 
0.22942 
0.25630 
0.25630 
0.16566 
0.16566 
0.20850 
0.20850 
0.05473 
0.05473 
0.17547 
0.17547 
0.15459 
0.15459 
0.22292 
0.22292 
0.20641 
0.20641 
0.12939 
0.12939 
0.13131 
0.13131 
0.07946 
0.07946 
0.14330 
0.14330 
0.08288 
0.08288 
0.10482 
0.10482 
0.16778 
0.16778 
0.05694 
0.05694 
0.12077 
0.12077 
0.13841 
0.13841 
0.07741 
0.07741 
0.11100 
0.11100 
0.13932 
0.13932 
0.12436 
0.12436 
0.10507 
0.10507 
0.08852 
0.08852 
0.10455 
0.10455 
0.06343 
0.06343 
0.17963 
0.17963 
0.09318 
0.09318 
0.13577 
0.13577 
0.12029 
0.12029 
0.17045 
0.17045 
0.20415 
0.20415 
0.16932 
0.16932 
0.12154 
0.12154 
0.25574 
0.25574 
0.13610 
0.13610 
0.07193 
0.07193 
0.08746 
0.08746 
0.17177 
0.17177 
0.10751 
0.10751 
0.15783 
0.15783 
0.14318 
0.14318 
0.06552 
0.06552 
0.26538 
0.26538 
0.08021 
0.08021 
0.17075 
0.17075 
0.25637 
0.25637 
0.12962 
0.12962 
0.06826 
0.06826 
0.11124 
0.11124 
0.20787 
0.20787 
0.13580 
0.13580 
0.14386 
0.14386 
0.16023 
0.16023 
0.10445 
0.10445 
0.19267 
0.19267 
0.08174 
0.08174 
0.10732 
0.10732 
0.18609 
0.18609 
0.10035 
0.10035 
0.12937 
0.12937 
0.11799 
0.11799 
0.11026 
0.11026 
0.18540 
0.18540 
0.13540 
0.13540 
0.11292 
0.11292 
0.16987 
0.16987 
0.18594 
0.18594 
0.15448 
0.15448 
0.26392 
0.26392 
0.09756 
0.09756 
0.12622 
0.12622 
0.10464 
0.10464 
0.14657 
0.14657 
0.16065 
0.16065 
0.04848 
0.04848 
0.16286 
0.16286 
0.07009 
0.07009 
0.17708 
0.17708 
0.06463 
0.06463 
0.09310 
0.09310 
0.17812 
0.17812 
0.30241 
0.30241 
0.24576 
0.24576 
0.14204 
0.14204 
0.09067 
0.09067 
0.17821 
0.17821 
0.08151 
0.08151 
0.23590 
0.23590 
0.06470 
0.06470 
0.26980 
0.26980 
0.18755 
0.18755 
0.33283 
0.33283 
0.15248 
0.15248 
0.11599 
0.11599 
0.10243 
0.10243 
0.13380 
0.13380 
0.17041 
0.17041 
0.14764 
0.14764 
0.11623 
0.11623 
0.09344 
0.09344 
0.17847 
0.17847 
0.09908 
0.09908 
0.09011 
0.09011 
0.28482 
0.28482 
0.14499 
0.14499 
0.08055 
0.08055 
0.12542 
0.12542 
0.07537 
0.07537 
0.22344 
0.22344 
0.08886 
0.08886 
0.16821 
0.16821 
0.15821 
0.15821 
0.17982 
0.17982 
0.18766 
0.18766 
0.04611 
0.04611 
0.16369 
0.16369 
0.11182 
0.11182 
0.14846 
0.14846 
0.12385 
0.12385 
0.07818 
0.07818 
0.08953 
0.08953 
0.05170 
0.05170 
0.11897 
0.11897 
0.22512 
0.22512 
0.11048 
0.11048 
0.18593 
0.18593 
0.16329 
0.16329 
0.10047 
0.10047 
0.16194 
0.16194 
0.13353 
0.13353 
0.17818 
0.17818 
0.13551 
0.13551 
0.09332 
0.09332 
0.15955 
0.15955 
0.23043 
0.23043 
0.13155 
0.13155 
0.10876 
0.10876 
0.17685 
0.17685 
0.08621 
0.08621 
0.18622 
0.18622 
0.14989 
0.14989 
0.12942 
0.12942 
0.07030 
0.07030 
0.24385 
0.24385 
0.12194 
0.12194 
0.14278 
0.14278 
0.12063 
0.12063 
0.08294 
0.08294 
0.16454 
0.16454 
0.15498 
0.15498 
0.19589 
0.19589 
0.09753 
0.09753 
0.11243 
0.11243 
0.07595 
0.07595 
0.12164 
0.12164 
0.12687 
0.12687 
0.10452 
0.10452 
0.12229 
0.12229 
0.11845 
0.11845 
0.07108 
0.07108 
0.06693 
0.06693 
0.12141 
0.12141 
0.09532 
0.09532 
0.14238 
0.14238 
0.16006 
0.16006 
0.10077 
0.10077 
0.26230 
0.26230 
0.15994 
0.15994 
0.20846 
0.20846 
0.17917 
0.17917 
0.10681 
0.10681 
0.07309 
0.07309 
0.11240 
0.11240 
0.13963 
0.13963 
0.14240 
0.14240 
0.11135 
0.11135 
0.11410 
0.11410 
0.11868 
0.11868 
0.19006 
0.19006 
0.19093 
0.19093 
0.20637 
0.20637 
0.13687 
0.13687 
0.16765 
0.16765 
0.28755 
0.28755 
0.10124 
0.10124 
0.16601 
0.16601 
0.16155 
0.16155 
0.08167 
0.08167 
0.26681 
0.26681 
0.08847 
0.08847 
0.11609 
0.11609 
0.09807 
0.09807 
0.10260 
0.10260 
0.12155 
0.12155 
0.09837 
0.09837 
0.10654 
0.10654 
0.09419 
0.09419 
0.16325 
0.16325 
0.09260 
0.09260 
0.09125 
0.09125 
0.10360 
0.10360 
0.08958 
0.08958 
0.11648 
0.11648 
0.09957 
0.09957 
0.12033 
0.12033 
0.12303 
0.12303 
0.15688 
0.15688 
0.33569 
0.33569 
0.17124 
0.17124 
0.05964 
0.05964 
0.19978 
0.19978 
0.11712 
0.11712 
0.14285 
0.14285 
0.13003 
0.13003 
0.10330 
0.10330 
0.16011 
0.16011 
0.10659 
0.10659 
0.06791 
0.06791 
0.05362 
0.05362 
0.09173 
0.09173 
0.10802 
0.10802 
0.11958 
0.11958 
0.13503 
0.13503 
0.09856 
0.09856 
0.11511 
0.11511 
0.12335 
0.12335 
0.13169 
0.13169 
0.13837 
0.13837 
0.15069 
0.15069 
0.13811 
0.13811 
0.10230 
0.10230 
0.28390 
0.28390 
0.20946 
0.20946 
0.22693 
0.22693 
0.07579 
0.07579 
0.14496 
0.14496 
0.15332 
0.15332 
0.13512 
0.13512 
0.18393 
0.18393 
0.10492 
0.10492 
0.20679 
0.20679 
0.15762 
0.15762 
0.12348 
0.12348 
0.18516 
0.18516 
0.16651 
0.16651 
0.14302 
0.14302 
0.17455 
0.17455 
0.17505 
0.17505 
0.17041 
0.17041 
0.16131 
0.16131 
0.13608 
0.13608 
0.18502 
0.18502 
0.14655 
0.14655 
0.12577 
0.12577 
0.06249 
0.06249 
0.13515 
0.13515 
0.09458 
0.09458 
0.23255 
0.23255 
0.09615 
0.09615 
0.14660 
0.14660 
0.13519 
0.13519 
0.24909 
0.24909 
0.14099 
0.14099 
0.21291 
0.21291 
0.08617 
0.08617 
0.15668 
0.15668 
0.12411 
0.12411 
0.07377 
0.07377 
0.07444 
0.07444 
0.10321 
0.10321 
0.02704 
0.02704 
0.07942 
0.07942 
0.23028 
0.23028 
0.22464 
0.22464 
0.11234 
0.11234 
0.09901 
0.09901 
0.14228 
0.14228 
0.09862 
0.09862 
0.13104 
0.13104 
0.09676 
0.09676 
0.05029 
0.05029 
0.08191 
0.08191 
0.12851 
0.12851 
0.19349 
0.19349 
0.10690 
0.10690 
0.13031 
0.13031 
0.10896 
0.10896 
0.19735 
0.19735 
0.22828 
0.22828 
0.14580 
0.14580 
0.14455 
0.14455 
0.06394 
0.06394 
0.14998 
0.14998 
0.08443 
0.08443 
0.13526 
0.13526 
0.18584 
0.18584 
SCALARS Umean_X double 1 
LOOKUP_TABLE default
0.08450 
0.08450 
0.04000 
0.04000 
0.01050 
0.01050 
0.02950 
0.02950 
0.02200 
0.02200 
-0.00050 
-0.00050 
0.00850 
0.00850 
0.02300 
0.02300 
0.09150 
0.09150 
0.08250 
0.08250 
-0.01600 
-0.01600 
-0.01000 
-0.01000 
0.04000 
0.04000 
-0.06400 
-0.06400 
-0.04900 
-0.04900 
0.06150 
0.06150 
0.01450 
0.01450 
-0.00850 
-0.00850 
0.05500 
0.05500 
0.10600 
0.10600 
0.01050 
0.01050 
0.07850 
0.07850 
-0.02850 
-0.02850 
0.00900 
0.00900 
0.11800 
0.11800 
0.01950 
0.01950 
0.09400 
0.09400 
0.03300 
0.03300 
0.07150 
0.07150 
0.01850 
0.01850 
0.03000 
0.03000 
-0.02750 
-0.02750 
0.09600 
0.09600 
0.01350 
0.01350 
0.03250 
0.03250 
0.01550 
0.01550 
0.04800 
0.04800 
0.02200 
0.02200 
-0.00050 
-0.00050 
-0.02000 
-0.02000 
-0.01100 
-0.01100 
0.06250 
0.06250 
0.02450 
0.02450 
0.02600 
0.02600 
0.00500 
0.00500 
0.09700 
0.09700 
0.07150 
0.07150 
-0.01500 
-0.01500 
0.03250 
0.03250 
0.01750 
0.01750 
0.03450 
0.03450 
-0.07350 
-0.07350 
-0.01200 
-0.01200 
0.10750 
0.10750 
0.01750 
0.01750 
0.03050 
0.03050 
0.01550 
0.01550 
0.03400 
0.03400 
0.01900 
0.01900 
0.05550 
0.05550 
0.02500 
0.02500 
0.02900 
0.02900 
-0.02000 
-0.02000 
0.08050 
0.08050 
0.16600 
0.16600 
0.03800 
0.03800 
0.12850 
0.12850 
0.00050 
0.00050 
-0.06250 
-0.06250 
0.03550 
0.03550 
0.05750 
0.05750 
0.04550 
0.04550 
0.11700 
0.11700 
0.02050 
0.02050 
0.08700 
0.08700 
0.07000 
0.07000 
-0.02100 
-0.02100 
0.04500 
0.04500 
-0.00600 
-0.00600 
0.11600 
0.11600 
0.01200 
0.01200 
0.01850 
0.01850 
-0.04450 
-0.04450 
0.05750 
0.05750 
0.13100 
0.13100 
0.03350 
0.03350 
-0.04950 
-0.04950 
0.01700 
0.01700 
0.13550 
0.13550 
-0.03650 
-0.03650 
0.06300 
0.06300 
-0.02400 
-0.02400 
0.04250 
0.04250 
-0.00850 
-0.00850 
-0.00600 
-0.00600 
0.17700 
0.17700 
-0.01300 
-0.01300 
0.10450 
0.10450 
0.00500 
0.00500 
0.15250 
0.15250 
0.08950 
0.08950 
0.08200 
0.08200 
-0.02300 
-0.02300 
-0.00850 
-0.00850 
0.08850 
0.08850 
0.06550 
0.06550 
0.06700 
0.06700 
0.12000 
0.12000 
0.06100 
0.06100 
0.04900 
0.04900 
-0.01300 
-0.01300 
0.00100 
0.00100 
0.04950 
0.04950 
0.06400 
0.06400 
-0.02300 
-0.02300 
0.03950 
0.03950 
0.03500 
0.03500 
0.04400 
0.04400 
0.02600 
0.02600 
0.12800 
0.12800 
-0.03700 
-0.03700 
0.05150 
0.05150 
0.09100 
0.09100 
0.11550 
0.11550 
0.05600 
0.05600 
0.06500 
0.06500 
0.01600 
0.01600 
-0.03100 
-0.03100 
0.07200 
0.07200 
0.02100 
0.02100 
-0.00750 
-0.00750 
0.04050 
0.04050 
0.14100 
0.14100 
0.08200 
0.08200 
-0.02450 
-0.02450 
0.07250 
0.07250 
0.00550 
0.00550 
0.08050 
0.08050 
0.04000 
0.04000 
0.01350 
0.01350 
0.04800 
0.04800 
0.04850 
0.04850 
0.06750 
0.06750 
0.10850 
0.10850 
0.14250 
0.14250 
0.08850 
0.08850 
-0.06500 
-0.06500 
0.03850 
0.03850 
0.04600 
0.04600 
0.01150 
0.01150 
0.13000 
0.13000 
0.15300 
0.15300 
0.00500 
0.00500 
0.07400 
0.07400 
0.10500 
0.10500 
0.04750 
0.04750 
-0.00950 
-0.00950 
0.06850 
0.06850 
0.08650 
0.08650 
-0.05500 
-0.05500 
0.01200 
0.01200 
0.11200 
0.11200 
0.04700 
0.04700 
-0.06250 
-0.06250 
0.05550 
0.05550 
0.06800 
0.06800 
0.09250 
0.09250 
0.00450 
0.00450 
0.11450 
0.11450 
0.07250 
0.07250 
0.00550 
0.00550 
0.04650 
0.04650 
0.03450 
0.03450 
0.07200 
0.07200 
0.07150 
0.07150 
0.09750 
0.09750 
0.01250 
0.01250 
0.11700 
0.11700 
-0.05750 
-0.05750 
-0.03650 
-0.03650 
-0.03950 
-0.03950 
0.05250 
0.05250 
0.06800 
0.06800 
0.04400 
0.04400 
-0.01150 
-0.01150 
0.09600 
0.09600 
0.18850 
0.18850 
-0.01650 
-0.01650 
0.08750 
0.08750 
0.07800 
0.07800 
0.02700 
0.02700 
0.09600 
0.09600 
0.04900 
0.04900 
0.07150 
0.07150 
0.02250 
0.02250 
0.02850 
0.02850 
0.15150 
0.15150 
0.03450 
0.03450 
0.07300 
0.07300 
0.00650 
0.00650 
0.18950 
0.18950 
0.04550 
0.04550 
-0.01150 
-0.01150 
0.03250 
0.03250 
0.09700 
0.09700 
0.04850 
0.04850 
-0.01700 
-0.01700 
0.10150 
0.10150 
-0.01850 
-0.01850 
0.10700 
0.10700 
0.03450 
0.03450 
0.06000 
0.06000 
-0.00500 
-0.00500 
0.03400 
0.03400 
0.09850 
0.09850 
0.05400 
0.05400 
-0.02150 
-0.02150 
0.01700 
0.01700 
0.06100 
0.06100 
-0.02850 
-0.02850 
0.02400 
0.02400 
0.02250 
0.02250 
0.13500 
0.13500 
0.02750 
0.02750 
0.07650 
0.07650 
-0.02800 
-0.02800 
0.08950 
0.08950 
0.10750 
0.10750 
0.02500 
0.02500 
0.04250 
0.04250 
0.11300 
0.11300 
0.08100 
0.08100 
0.08800 
0.08800 
0.04550 
0.04550 
0.08250 
0.08250 
0.10800 
0.10800 
0.10300 
0.10300 
-0.02150 
-0.02150 
0.07400 
0.07400 
0.09900 
0.09900 
0.02450 
0.02450 
0.05200 
0.05200 
-0.01300 
-0.01300 
0.02500 
0.02500 
0.01650 
0.01650 
0.04200 
0.04200 
0.03900 
0.03900 
0.00200 
0.00200 
0.05100 
0.05100 
0.08000 
0.08000 
0.06400 
0.06400 
-0.01450 
-0.01450 
0.07500 
0.07500 
0.06050 
0.06050 
-0.00200 
-0.00200 
0.01750 
0.01750 
0.06900 
0.06900 
0.03450 
0.03450 
0.01900 
0.01900 
0.04150 
0.04150 
0.08400 
0.08400 
0.08650 
0.08650 
0.05200 
0.05200 
0.09900 
0.09900 
0.11250 
0.11250 
-0.00900 
-0.00900 
0.05550 
0.05550 
0.03300 
0.03300 
0.04850 
0.04850 
-0.04550 
-0.04550 
0.08550 
0.08550 
0.08150 
0.08150 
0.02850 
0.02850 
0.17450 
0.17450 
-0.01200 
-0.01200 
0.08200 
0.08200 
0.07200 
0.07200 
0.03150 
0.03150 
0.04550 
0.04550 
0.07050 
0.07050 
0.11150 
0.11150 
0.06600 
0.06600 
0.09400 
0.09400 
0.10550 
0.10550 
0.00400 
0.00400 
0.10950 
0.10950 
0.03600 
0.03600 
0.03650 
0.03650 
0.13500 
0.13500 
0.01300 
0.01300 
0.10300 
0.10300 
0.04000 
0.04000 
-0.03850 
-0.03850 
0.00650 
0.00650 
-0.01150 
-0.01150 
0.08950 
0.08950 
0.08750 
0.08750 
0.06350 
0.06350 
0.08300 
0.08300 
0.01500 
0.01500 
0.07350 
0.07350 
-0.01050 
-0.01050 
-0.03500 
-0.03500 
0.06100 
0.06100 
0.12650 
0.12650 
-0.03400 
-0.03400 
-0.00100 
-0.00100 
0.00400 
0.00400 
0.06700 
0.06700 
0.00850 
0.00850 
0.01150 
0.01150 
0.12450 
0.12450 
0.09350 
0.09350 
0.11900 
0.11900 
0.10650 
0.10650 
0.07950 
0.07950 
0.07200 
0.07200 
-0.06300 
-0.06300 
-0.00800 
-0.00800 
0.01500 
0.01500 
0.11850 
0.11850 
0.08650 
0.08650 
0.09350 
0.09350 
0.05450 
0.05450 
0.01800 
0.01800 
-0.02700 
-0.02700 
0.01300 
0.01300 
0.06950 
0.06950 
0.03700 
0.03700 
0.05200 
0.05200 
0.04250 
0.04250 
0.06550 
0.06550 
0.02200 
0.02200 
0.05850 
0.05850 
0.07750 
0.07750 
0.11000 
0.11000 
0.01000 
0.01000 
0.08300 
0.08300 
-0.00350 
-0.00350 
0.08900 
0.08900 
-0.00950 
-0.00950 
0.10750 
0.10750 
0.02450 
0.02450 
0.10600 
0.10600 
-0.00050 
-0.00050 
0.02600 
0.02600 
0.10200 
0.10200 
0.09600 
0.09600 
0.01400 
0.01400 
0.08750 
0.08750 
0.03350 
0.03350 
0.03500 
0.03500 
0.05150 
0.05150 
0.09950 
0.09950 
0.16500 
0.16500 
0.03900 
0.03900 
0.00900 
0.00900 
0.07200 
0.07200 
0.05250 
0.05250 
0.10500 
0.10500 
0.10200 
0.10200 
0.05000 
0.05000 
0.07600 
0.07600 
-0.02500 
-0.02500 
0.15400 
0.15400 
0.15050 
0.15050 
-0.05100 
-0.05100 
0.05600 
0.05600 
0.07250 
0.07250 
0.08050 
0.08050 
0.05500 
0.05500 
0.03650 
0.03650 
-0.02050 
-0.02050 
0.05850 
0.05850 
0.05600 
0.05600 
0.10250 
0.10250 
0.12850 
0.12850 
0.10350 
0.10350 
-0.03250 
-0.03250 
0.12950 
0.12950 
0.04400 
0.04400 
0.15200 
0.15200 
0.02950 
0.02950 
0.04050 
0.04050 
-0.04250 
-0.04250 
0.02850 
0.02850 
0.03150 
0.03150 
0.08150 
0.08150 
0.06300 
0.06300 
-0.01150 
-0.01150 
0.02600 
0.02600 
-0.01700 
-0.01700 
-0.01550 
-0.01550 
0.00300 
0.00300 
0.11450 
0.11450 
0.13300 
0.13300 
0.01350 
0.01350 
0.04250 
0.04250 
0.13100 
0.13100 
0.07300 
0.07300 
-0.00350 
-0.00350 
0.09600 
0.09600 
0.03250 
0.03250 
0.04700 
0.04700 
0.11750 
0.11750 
0.05550 
0.05550 
0.02600 
0.02600 
-0.10300 
-0.10300 
-0.04250 
-0.04250 
0.06200 
0.06200 
0.08200 
0.08200 
0.04800 
0.04800 
0.03950 
0.03950 
0.03050 
0.03050 
0.14350 
0.14350 
0.05100 
0.05100 
0.06500 
0.06500 
0.07950 
0.07950 
0.02750 
0.02750 
0.10700 
0.10700 
-0.01850 
-0.01850 
0.06600 
0.06600 
0.07350 
0.07350 
0.04450 
0.04450 
0.03150 
0.03150 
-0.04450 
-0.04450 
0.07450 
0.07450 
0.06500 
0.06500 
0.08850 
0.08850 
0.09200 
0.09200 
0.06900 
0.06900 
0.05700 
0.05700 
0.06800 
0.06800 
0.09450 
0.09450 
0.07200 
0.07200 
0.06350 
0.06350 
0.00900 
0.00900 
0.06200 
0.06200 
0.15300 
0.15300 
-0.00750 
-0.00750 
0.02800 
0.02800 
0.11600 
0.11600 
0.02450 
0.02450 
0.07350 
0.07350 
0.10750 
0.10750 
0.08900 
0.08900 
0.15500 
0.15500 
0.03000 
0.03000 
-0.04350 
-0.04350 
0.01250 
0.01250 
0.08600 
0.08600 
0.08550 
0.08550 
0.00500 
0.00500 
0.09500 
0.09500 
0.08400 
0.08400 
-0.01200 
-0.01200 
0.05300 
0.05300 
-0.00150 
-0.00150 
0.11300 
0.11300 
-0.00300 
-0.00300 
-0.01850 
-0.01850 
0.08200 
0.08200 
0.18700 
0.18700 
0.05800 
0.05800 
0.05000 
0.05000 
0.02950 
0.02950 
0.02200 
0.02200 
0.08600 
0.08600 
-0.00850 
-0.00850 
0.08100 
0.08100 
-0.00450 
-0.00450 
0.03300 
0.03300 
0.01950 
0.01950 
0.04300 
0.04300 
0.00700 
0.00700 
0.03600 
0.03600 
0.07750 
0.07750 
0.08450 
0.08450 
-0.01550 
-0.01550 
-0.00450 
-0.00450 
0.00800 
0.00800 
0.08900 
0.08900 
0.09950 
0.09950 
0.06050 
0.06050 
0.03750 
0.03750 
-0.00350 
-0.00350 
0.06200 
0.06200 
-0.01000 
-0.01000 
0.08150 
0.08150 
0.00150 
0.00150 
-0.01300 
-0.01300 
0.02500 
0.02500 
0.04450 
0.04450 
0.08950 
0.08950 
0.03700 
0.03700 
0.02300 
0.02300 
0.07100 
0.07100 
0.03400 
0.03400 
-0.02100 
-0.02100 
0.05600 
0.05600 
-0.03550 
-0.03550 
0.01000 
0.01000 
0.06700 
0.06700 
0.04000 
0.04000 
0.04600 
0.04600 
0.02550 
0.02550 
0.05850 
0.05850 
-0.05900 
-0.05900 
0.01050 
0.01050 
0.02350 
0.02350 
0.02050 
0.02050 
0.01950 
0.01950 
-0.02150 
-0.02150 
0.03400 
0.03400 
0.02800 
0.02800 
-0.02050 
-0.02050 
0.06000 
0.06000 
0.02800 
0.02800 
0.08000 
0.08000 
0.18750 
0.18750 
0.12150 
0.12150 
0.03450 
0.03450 
-0.02850 
-0.02850 
0.06200 
0.06200 
0.06900 
0.06900 
-0.00600 
-0.00600 
-0.02200 
-0.02200 
SCALARS Umean_Y double 1 
LOOKUP_TABLE default
0.12150 
0.12150 
0.07000 
0.07000 
0.09850 
0.09850 
0.10700 
0.10700 
0.10900 
0.10900 
0.14100 
0.14100 
0.12950 
0.12950 
0.09200 
0.09200 
0.11950 
0.11950 
0.03300 
0.03300 
0.13550 
0.13550 
0.17250 
0.17250 
0.15150 
0.15150 
-0.03450 
-0.03450 
0.12450 
0.12450 
0.10750 
0.10750 
0.18750 
0.18750 
0.08350 
0.08350 
0.11500 
0.11500 
0.08200 
0.08200 
0.07900 
0.07900 
0.02550 
0.02550 
0.11200 
0.11200 
0.10200 
0.10200 
0.05000 
0.05000 
0.09100 
0.09100 
0.14200 
0.14200 
0.13600 
0.13600 
0.19900 
0.19900 
0.08650 
0.08650 
0.14150 
0.14150 
0.12350 
0.12350 
0.13200 
0.13200 
0.07900 
0.07900 
0.10250 
0.10250 
0.06700 
0.06700 
0.16400 
0.16400 