# vtk DataFile Version 2.1 
Trajects from timestep 193 with color option 
ASCII 
 
DATASET POLYDATA POINTS 888 float 
-6.706 -0.900 -73.801 
-6.519 -0.744 -73.762 
1.191 5.315 -70.416 
1.285 5.324 -70.572 
10.901 4.300 -71.927 
11.030 4.390 -72.263 
5.989 5.493 -72.046 
5.876 5.352 -72.161 
-8.634 6.959 -74.794 
-8.472 7.061 -74.925 
-4.070 -3.055 -69.762 
-3.957 -2.854 -69.886 
3.634 1.515 -69.863 
3.741 1.292 -69.929 
5.886 -0.081 -69.102 
5.905 -0.112 -69.260 
-2.285 10.475 -70.511 
-2.374 10.834 -70.525 
1.090 -5.863 -70.381 
1.107 -5.712 -70.498 
1.967 -0.159 -69.464 
1.981 0.054 -69.818 
8.862 1.258 -69.884 
8.881 1.401 -70.196 
5.057 8.567 -70.433 
4.872 8.270 -70.648 
-11.720 -4.371 -72.619 
-11.667 -4.263 -72.801 
-8.430 -8.323 -71.514 
-8.370 -8.214 -71.749 
4.984 4.349 -71.941 
5.131 4.131 -72.120 
-2.095 -3.498 -69.522 
-2.061 -3.285 -69.714 
4.594 6.870 -70.739 
4.420 6.837 -70.688 
-0.348 10.539 -70.226 
-0.633 10.542 -70.106 
-1.568 -5.986 -68.000 
-1.498 -5.830 -67.924 
-6.588 -1.706 -71.218 
-6.418 -1.409 -71.255 
2.621 9.440 -66.448 
2.385 9.320 -66.450 
-5.029 -1.765 -70.980 
-4.994 -1.604 -71.103 
-7.663 10.502 -75.099 
-7.589 10.716 -75.424 
3.717 -8.002 -67.194 
3.677 -7.837 -67.114 
7.665 -0.258 -69.924 
7.766 -0.283 -70.246 
6.821 -0.313 -75.185 
7.020 -0.369 -75.510 
-5.803 8.443 -72.828 
-5.704 8.544 -73.037 
1.295 -9.240 -73.301 
1.550 -9.192 -73.393 
-3.380 6.428 -73.838 
-3.430 6.489 -73.812 
4.720 4.153 -68.538 
4.658 4.155 -68.667 
8.645 -11.249 -68.920 
8.722 -11.225 -68.911 
-6.928 1.484 -74.226 
-6.863 1.663 -74.158 
-0.629 -5.396 -70.177 
-0.429 -5.177 -70.165 
-2.884 11.211 -64.466 
-2.941 11.543 -64.483 
0.090 6.194 -73.967 
0.072 6.155 -74.250 
-7.275 4.391 -67.037 
-7.021 4.724 -67.061 
0.114 -2.810 -70.662 
0.213 -2.627 -70.818 
0.037 1.513 -71.010 
0.052 1.766 -71.198 
-7.395 -5.739 -64.611 
-7.421 -5.571 -64.852 
-0.134 -6.389 -70.118 
-0.001 -6.247 -70.257 
-2.072 7.073 -66.019 
-2.104 7.138 -65.848 
-7.117 -7.305 -68.252 
-7.076 -7.316 -68.487 
1.172 -12.076 -69.751 
1.366 -12.089 -69.714 
13.785 4.735 -65.868 
13.798 4.914 -65.801 
4.978 9.162 -71.321 
4.892 9.007 -71.456 
-7.041 10.739 -69.309 
-7.074 10.717 -69.438 
8.894 -5.683 -67.207 
9.069 -5.612 -67.159 
8.152 -0.862 -68.588 
8.188 -0.796 -68.958 
-13.689 -4.821 -69.366 
-13.455 -4.674 -69.421 
4.279 2.552 -71.844 
4.295 2.404 -72.012 
-8.442 1.829 -68.924 
-8.360 2.156 -68.892 
8.236 -6.977 -63.746 
8.023 -6.915 -63.684 
1.122 10.619 -68.011 
0.796 10.409 -68.047 
8.265 1.850 -67.244 
8.386 1.856 -67.510 
-1.048 5.904 -62.454 
-1.169 5.908 -62.456 
0.498 -1.811 -64.234 
0.397 -1.891 -64.412 
-6.371 7.134 -66.459 
-6.398 7.341 -66.367 
9.742 1.103 -64.630 
9.789 1.263 -64.807 
-0.204 12.977 -67.333 
-0.403 12.719 -67.276 
-4.152 8.448 -63.978 
-4.212 8.339 -63.777 
-9.615 9.632 -66.116 
-9.696 9.994 -66.019 
-4.715 10.081 -69.319 
-4.843 10.386 -69.407 
-3.998 1.855 -67.896 
-3.761 2.084 -68.031 
-2.301 7.401 -73.620 
-2.346 7.532 -73.818 
3.222 -5.012 -70.538 
3.311 -5.161 -70.860 
5.394 -3.912 -68.679 
5.561 -4.117 -69.022 
-8.195 5.132 -69.485 
-8.008 5.079 -69.676 
1.304 -2.884 -72.830 
1.355 -2.769 -73.080 
-3.630 -6.102 -69.944 
-3.281 -5.975 -69.863 
0.489 5.461 -65.114 
0.684 5.484 -65.195 
-3.060 -1.500 -65.773 
-3.105 -1.381 -66.181 
1.050 -7.293 -66.971 
1.009 -7.320 -67.376 
-13.182 -3.273 -67.275 
-13.150 -3.242 -67.445 
6.967 -2.946 -64.539 
7.000 -2.786 -64.861 
3.754 -9.439 -72.128 
3.891 -9.320 -72.138 
5.776 8.719 -67.335 
5.728 8.573 -67.176 
-0.699 5.489 -68.494 
-0.578 5.516 -68.394 
-10.086 -7.110 -65.394 
-10.126 -7.101 -65.557 
4.200 -6.440 -73.311 
4.460 -6.319 -73.552 
0.228 11.936 -71.622 
-0.093 12.016 -71.809 
-3.393 6.441 -62.795 
-3.319 6.596 -62.465 
-12.224 1.077 -78.039 
-12.047 1.437 -78.167 
4.001 0.496 -61.837 
4.075 0.520 -61.860 
-9.972 -2.288 -67.594 
-9.861 -2.180 -67.576 
-5.857 -7.026 -65.698 
-5.962 -7.100 -65.895 
5.816 5.132 -65.319 
5.644 5.142 -65.497 
3.780 -0.955 -60.817 
3.727 -0.949 -60.964 
2.188 -11.787 -68.706 
2.432 -11.744 -68.607 
-0.733 -0.481 -67.741 
-0.716 -0.293 -67.917 
-2.871 3.328 -63.353 
-2.948 3.160 -63.360 
-8.768 -11.636 -70.031 
-8.668 -11.556 -69.859 
-3.487 -5.096 -67.163 
-3.534 -5.131 -67.492 
-0.871 -7.203 -70.428 
-0.681 -7.152 -70.476 
6.038 -5.229 -65.031 
5.947 -5.119 -65.289 
4.726 -2.019 -66.309 
4.787 -1.916 -66.686 
-7.840 -0.274 -70.027 
-7.649 0.041 -70.022 
-7.079 12.604 -67.163 
-7.385 12.674 -66.979 
2.783 6.045 -71.879 
2.524 5.987 -71.984 
0.407 3.492 -63.577 
0.350 3.519 -63.643 
-7.277 3.256 -62.017 
-7.437 3.331 -62.169 
-4.253 -3.102 -63.828 
-4.146 -3.033 -64.121 
7.607 8.362 -59.519 
7.667 8.286 -59.288 
5.860 -12.441 -65.230 
6.029 -12.363 -65.068 
14.572 -4.412 -72.425 
14.573 -4.315 -72.659 
-6.649 -1.821 -65.100 
-6.561 -1.796 -65.463 
-9.058 -12.178 -69.590 
-9.034 -12.074 -69.391 
6.979 -7.510 -64.360 
6.737 -7.490 -64.378 
9.066 -5.761 -68.992 
9.171 -5.908 -69.019 
-10.259 9.172 -70.798 
-10.183 8.989 -70.748 
-9.098 8.016 -71.011 
-8.890 8.123 -70.953 
6.137 1.841 -63.938 
6.156 1.842 -63.960 
10.858 4.364 -75.809 
11.062 4.325 -76.271 
-1.251 3.528 -64.543 
-1.193 3.336 -64.467 
-11.015 -4.443 -63.211 
-10.999 -4.443 -63.345 
6.341 -11.730 -66.451 
6.565 -11.535 -66.370 
-2.898 -8.206 -63.799 
-2.960 -8.524 -63.771 
2.183 -12.299 -68.661 
2.454 -12.252 -68.479 
-0.533 3.057 -63.702 
-0.544 3.116 -63.737 
-2.807 -2.099 -62.018 
-2.807 -2.308 -62.237 
2.617 0.257 -60.351 
2.652 0.249 -60.479 
-6.013 -3.641 -64.956 
-5.932 -3.682 -65.101 
8.738 4.642 -68.012 
8.667 4.549 -68.081 
8.773 -4.090 -71.851 
8.861 -3.937 -72.001 
10.759 7.862 -72.089 
10.908 7.775 -72.384 
-3.664 0.428 -62.274 
-3.761 0.377 -62.578 
10.197 3.022 -69.691 
10.256 2.912 -70.030 
-0.963 2.992 -63.631 
-0.864 2.909 -63.629 
6.529 3.707 -63.156 
6.458 3.785 -63.429 
-3.237 4.379 -63.985 
-3.214 4.364 -63.920 
6.393 2.163 -67.422 
6.447 2.230 -67.508 
-4.055 -1.213 -62.529 
-4.121 -1.290 -63.022 
5.058 6.007 -65.991 
4.819 5.965 -65.977 
-14.728 -8.426 -73.150 
-14.555 -8.298 -73.272 
-11.540 8.850 -67.404 
-11.569 9.081 -67.310 
-11.136 8.630 -76.012 
-11.185 8.731 -76.461 
3.220 -6.097 -73.024 
3.405 -5.976 -73.203 
0.959 -1.214 -67.648 
0.877 -1.155 -67.807 
3.185 10.980 -69.646 
3.139 10.704 -69.725 
-6.851 -7.284 -64.123 
-7.090 -7.156 -64.414 
8.739 -1.065 -66.478 
8.766 -1.031 -66.857 
-4.428 -5.334 -62.638 
-4.411 -5.346 -62.739 
-7.061 9.508 -67.056 
-7.237 9.301 -67.124 
-4.839 -8.882 -73.901 
-4.692 -8.742 -73.775 
3.188 -10.259 -68.917 
3.516 -10.263 -68.961 
3.170 -8.270 -62.873 
3.064 -8.183 -63.075 
12.242 8.067 -64.211 
12.006 8.208 -64.080 
-12.292 -7.226 -64.743 
-12.380 -7.143 -64.898 
-4.714 -0.464 -63.031 
-4.781 -0.546 -63.371 
1.393 5.351 -62.773 
1.204 5.419 -62.840 
-10.250 2.146 -62.828 
-10.414 2.199 -63.045 
6.250 4.240 -65.038 
6.119 4.279 -65.107 
6.422 -0.869 -66.904 
6.518 -0.719 -67.242 
12.036 -9.386 -68.536 
12.218 -9.295 -68.374 
9.782 -6.216 -71.848 
9.830 -6.090 -71.754 
-5.542 -0.097 -63.533 
-5.648 -0.091 -64.054 
-12.016 -12.128 -71.384 
-11.888 -12.081 -71.576 
-13.737 6.980 -77.241 
-13.660 6.962 -77.600 
-6.887 2.862 -61.611 
-7.107 2.891 -61.798 
-5.347 -0.860 -63.284 
-5.244 -0.795 -63.766 
1.845 -2.953 -63.792 
1.694 -2.965 -64.016 
7.280 11.321 -70.439 
7.326 10.905 -70.315 
11.129 4.521 -67.613 
11.084 4.774 -67.682 
0.731 6.171 -72.731 
0.700 6.175 -72.981 
-0.280 -10.620 -70.572 
-0.110 -10.552 -70.590 
5.320 -10.485 -68.911 
5.643 -10.456 -69.048 
-10.527 2.609 -65.603 
-10.611 2.750 -65.832 
9.017 -11.652 -68.406 
9.052 -11.627 -68.387 
9.048 -2.966 -65.286 
9.041 -2.866 -65.491 
4.891 0.184 -62.211 
4.887 0.240 -62.396 
-3.667 -8.706 -65.074 
-3.775 -8.610 -65.090 
2.206 -11.954 -70.596 
2.286 -12.041 -70.725 
-3.718 1.700 -58.293 
-3.882 1.701 -58.428 
5.869 2.748 -60.882 
5.769 2.815 -61.166 
0.949 -6.971 -62.211 
0.908 -6.896 -62.396 
8.733 -4.311 -67.679 
8.729 -4.419 -67.800 
-3.442 4.262 -69.036 
-3.271 4.521 -68.985 
15.984 -2.013 -65.809 
16.430 -2.052 -66.071 
4.945 10.399 -65.927 
4.953 10.369 -65.807 
8.412 7.204 -64.547 
8.459 7.113 -64.446 
-9.214 11.256 -67.513 
-9.314 11.118 -67.464 
6.088 -7.842 -67.200 
5.939 -7.719 -67.403 
1.194 11.703 -66.182 
0.979 11.223 -66.336 
14.014 5.915 -69.002 
13.669 6.288 -69.559 
9.644 6.737 -65.493 
9.705 6.745 -65.400 
-3.397 1.467 -63.507 
-3.425 1.497 -63.566 
-5.256 5.022 -61.122 
-5.183 5.130 -61.036 
-4.835 -1.418 -63.321 
-4.623 -1.405 -63.786 
9.144 4.352 -71.852 
9.275 4.147 -71.974 
-0.734 -11.908 -69.595 
-0.582 -11.900 -69.611 
-11.000 -8.179 -63.968 
-11.092 -8.246 -64.080 
11.582 2.082 -64.225 
11.616 2.250 -64.596 
-10.388 -4.214 -72.723 
-10.322 -4.107 -72.950 
-2.659 -12.346 -68.671 
-2.396 -12.368 -68.679 
-2.140 7.673 -65.541 
-2.105 7.870 -65.323 
-11.237 -11.416 -67.779 
-11.058 -11.398 -67.995 
-5.363 -6.947 -63.511 
-5.495 -6.973 -63.641 
13.950 11.667 -67.255 
14.041 11.839 -67.611 
9.502 8.881 -63.285 
9.583 8.908 -63.146 
8.770 8.207 -65.191 
8.784 8.046 -65.180 
8.789 -8.365 -68.856 
9.112 -8.195 -68.828 
-1.645 -12.130 -64.004 
-1.369 -11.921 -63.651 
-8.080 12.457 -70.435 
-8.169 12.503 -70.536 
-11.252 2.973 -62.391 
-11.498 2.999 -62.650 
-3.346 -6.409 -63.468 
-3.391 -6.590 -63.681 
-12.349 4.357 -65.866 
-12.463 4.677 -66.043 
7.839 -8.452 -70.241 
7.940 -8.257 -70.173 
4.610 -6.693 -70.139 
4.835 -6.813 -70.346 
11.773 10.557 -71.074 
11.641 10.631 -71.409 
3.783 -0.295 -64.878 
3.805 -0.167 -64.981 
14.556 -6.848 -63.230 
14.628 -6.729 -63.376 
9.729 8.179 -66.810 
9.726 8.118 -66.863 
3.561 4.119 -67.087 
3.604 4.070 -67.288 
-12.741 2.617 -69.901 
-12.718 2.892 -69.931 
8.481 1.916 -69.085 
8.487 1.992 -69.299 
-10.032 -7.473 -72.067 
-10.015 -7.416 -72.270 
-9.068 -11.356 -72.669 
-8.978 -11.182 -72.361 
-7.977 -9.559 -63.606 
-8.085 -9.674 -63.616 
3.114 -7.282 -69.074 
3.379 -7.410 -69.258 
11.151 2.275 -70.203 
10.908 2.395 -70.291 
-12.416 12.995 -64.244 
-12.583 13.110 -63.823 
[...]
POINT_DATA 888 
SCALARS Umean double 1 
LOOKUP_TABLE default
0.12331 
0.12331 
0.09118 
0.09118 
0.18550 
0.18550 
0.10709 
0.10709 
0.11598 
0.11598 
0.13091 
0.13091 
0.12800 
0.12800 
0.08106 
0.08106 
0.18507 
0.18507 
0.09589 
0.09589 
0.20669 
0.20669 
0.17187 
0.17187 
0.20534 
0.20534 
0.10908 
0.10908 
0.13295 
0.13295 
0.15904 
0.15904 
0.14439 
0.14439 
0.09215 
0.09215 
0.15462 
0.15462 
0.09356 
0.09356 
0.17210 
0.17210 
0.13238 
0.13238 
0.10280 
0.10280 
0.19805 
0.19805 
0.09384 
0.09384 
0.16920 
0.16920 
0.19259 
0.19259 
0.12618 
0.12618 
0.13765 
0.13765 
0.04152 
0.04152 
0.07157 
0.07157 
0.04058 
0.04058 
0.10111 
0.10111 
0.14841 
0.14841 
0.16864 
0.16864 
0.14312 
0.14312 
0.20975 
0.20975 
0.13002 
0.13002 
0.15778 
0.15778 
0.14746 
0.14746 
0.11956 
0.11956 
0.09286 
0.09286 
0.11940 
0.11940 
0.09896 
0.09896 
0.09578 
0.09578 
0.11141 
0.11141 
0.06748 
0.06748 
0.09743 
0.09743 
0.18878 
0.18878 
0.14088 
0.14088 
0.11223 
0.11223 
0.16932 
0.16932 
0.11517 
0.11517 
0.19473 
0.19473 
0.14614 
0.14614 
0.06054 
0.06054 
0.10987 
0.10987 
0.11406 
0.11406 
0.12159 
0.12159 
0.16539 
0.16539 
0.11820 
0.11820 
0.19171 
0.19171 
0.17114 
0.17114 
0.17807 
0.17807 
0.12082 
0.12082 
0.18290 
0.18290 
0.21654 
0.21654 
0.13625 
0.13625 
0.13993 
0.13993 
0.19006 
0.19006 
0.10620 
0.10620 
0.21369 
0.21369 
0.20398 
0.20398 
0.08787 
0.08787 
0.18054 
0.18054 
0.09087 
0.09087 
0.11057 
0.11057 
0.07964 
0.07964 
0.08404 
0.08404 
0.18730 
0.18730 
0.19001 
0.19001 
0.18601 
0.18601 
0.21054 
0.21054 
0.04056 
0.04056 
0.07796 
0.07796 
0.11759 
0.11759 
0.12386 
0.12386 
0.07819 
0.07819 
0.13340 
0.13340 
0.12904 
0.12904 
0.09247 
0.09247 
0.10722 
0.10722 
0.16709 
0.16709 
0.10125 
0.10125 
0.14743 
0.14743 
0.19777 
0.19777 
0.18421 
0.18421 
0.18193 
0.18193 
0.14271 
0.14271 
0.04565 
0.04565 
0.11654 
0.11654 
0.15973 
0.15973 
0.12524 
0.12524 
0.12338 
0.12338 
0.12666 
0.12666 
0.18718 
0.18718 
0.11291 
0.11291 
0.12175 
0.12175 
0.09133 
0.09133 
0.10218 
0.10218 
0.12050 
0.12050 
0.01454 
0.01454 
0.25327 
0.25327 
0.10724 
0.10724 
0.06748 
0.06748 
0.15392 
0.15392 
0.16260 
0.16260 
0.16490 
0.16490 
0.03474 
0.03474 
0.15136 
0.15136 
0.06647 
0.06647 
0.08554 
0.08554 
0.06792 
0.06792 
0.11582 
0.11582 
0.17088 
0.17088 
0.16158 
0.16158 
0.18063 
0.18063 
0.06460 
0.06460 
0.14633 
0.14633 
0.03528 
0.03528 
0.06083 
0.06083 
0.25166 
0.25166 
0.12153 
0.12153 
0.12369 
0.12369 
0.12554 
0.12554 
0.23141 
0.23141 
0.14222 
0.14222 
0.09419 
0.09419 
0.14537 
0.14537 
0.19886 
0.19886 
0.19074 
0.19074 
0.05156 
0.05156 
0.14004 
0.14004 
0.11946 
0.11946 
0.16548 
0.16548 
0.12207 
0.12207 
0.15226 
0.15226 
0.09831 
0.09831 
0.17805 
0.17805 
0.10587 
0.10587 
0.13856 
0.13856 
0.07656 
0.07656 
0.19102 
0.19102 
0.13005 
0.13005 
0.08218 
0.08218 
0.26585 
0.26585 
0.11775 
0.11775 
0.18380 
0.18380 
0.14509 
0.14509 
0.24857 
0.24857 
0.13520 
0.13520 
0.21826 
0.21826 
0.13304 
0.13304 
0.12597 
0.12597 
0.09199 
0.09199 
0.17602 
0.17602 
0.14087 
0.14087 
0.02351 
0.02351 
0.11410 
0.11410 
0.09667 
0.09667 
0.07269 
0.07269 
0.08748 
0.08748 
0.10621 
0.10621 
0.15423 
0.15423 
0.10190 
0.10190 
0.08112 
0.08112 
0.15726 
0.15726 
0.25937 
0.25937 
0.06198 
0.06198 
0.07192 
0.07192 
0.08866 
0.08866 
0.14012 
0.14012 
0.27402 
0.27402 
0.37696 
0.37696 
0.05575 
0.05575 
0.03593 
0.03593 
0.07808 
0.07808 
0.25561 
0.25561 
0.13608 
0.13608 
0.07652 
0.07652 
0.07984 
0.07984 
0.20434 
0.20434 
0.12974 
0.12974 
0.13202 
0.13202 
0.14795 
0.14795 
0.14055 
0.14055 
0.09354 
0.09354 
0.20286 
0.20286 
0.08156 
0.08156 
0.08099 
0.08099 
0.18304 
0.18304 
0.24722 
0.24722 
0.07113 
0.07113 
0.17908 
0.17908 
0.14156 
0.14156 
0.19152 
0.19152 
0.11495 
0.11495 
0.16422 
0.16422 
0.18380 
0.18380 
0.08288 
0.08288 
0.10082 
0.10082 
0.04043 
0.04043 
0.10565 
0.10565 
0.13879 
0.13879 
0.11359 
0.11359 
0.10577 
0.10577 
0.18251 
0.18251 
0.07904 
0.07904 
0.17354 
0.17354 
0.14247 
0.14247 
0.23364 
0.23364 
0.24533 
0.24533 
0.15724 
0.15724 
0.18521 
0.18521 
0.18225 
0.18225 
0.17861 
0.17861 
0.10811 
0.10811 
0.16937 
0.16937 
0.12859 
0.12859 
0.13677 
0.13677 
0.17277 
0.17277 
0.19907 
0.19907 
0.21463 
0.21463 
0.21039 
0.21039 
0.12076 
0.12076 
0.33903 
0.33903 
0.05557 
0.05557 
0.26158 
0.26158 
0.22310 
0.22310 
0.15635 
0.15635 
0.15915 
0.15915 
0.11843 
0.11843 
0.13975 
0.13975 
0.07400 
0.07400 
0.10918 
0.10918 
0.22199 
0.22199 
0.16313 
0.16313 
0.15066 
0.15066 
0.15007 
0.15007 
0.11770 
0.11770 
0.18130 
0.18130 
0.21734 
0.21734 
0.23593 
0.23593 
0.15359 
0.15359 
0.10705 
0.10705 
0.05802 
0.05802 
0.13766 
0.13766 
0.12394 
0.12394 
0.18631 
0.18631 
0.14530 
0.14530 
0.18621 
0.18621 
0.17963 
0.17963 
0.25212 
0.25212 
0.20807 
0.20807 
0.10453 
0.10453 
0.13671 
0.13671 
0.10907 
0.10907 
0.07162 
0.07162 
0.18507 
0.18507 
0.15398 
0.15398 
0.12741 
0.12741 
0.16502 
0.16502 
0.22777 
0.22777 
0.05795 
0.05795 
0.07916 
0.07916 
0.06861 
0.06861 
0.20258 
0.20258 
0.15404 
0.15404 
0.08606 
0.08606 
0.10566 
0.10566 
0.10322 
0.10322 
0.13147 
0.13147 
0.09528 
0.09528 
0.10862 
0.10862 
0.15174 
0.15174 
0.15392 
0.15392 
0.12021 
0.12021 
0.15024 
0.15024 
0.25855 
0.25855 
0.16255 
0.16255 
0.18462 
0.18462 
0.19758 
0.19758 
0.10999 
0.10999 
0.14602 
0.14602 
0.11709 
0.11709 
0.19701 
0.19701 
0.06440 
0.06440 
0.10699 
0.10699 
0.18993 
0.18993 
0.19202 
0.19202 
0.14697 
0.14697 
0.14712 
0.14712 
0.10025 
0.10025 
0.18292 
0.18292 
0.09353 
0.09353 
0.18699 
0.18699 
0.14026 
0.14026 
0.12188 
0.12188 
0.22311 
0.22311 
0.13363 
0.13363 
0.04456 
0.04456 
0.09144 
0.09144 
0.02239 
0.02239 
0.07280 
0.07280 
0.11987 
0.11987 
0.17696 
0.17696 
0.14956 
0.14956 
0.20466 
0.20466 
0.21286 
0.21286 
0.11407 
0.11407 
0.12153 
0.12153 
0.13435 
0.13435 
0.27098 
0.27098 
0.07211 
0.07211 
0.06388 
0.06388 
0.18515 
0.18515 
0.12970 
0.12970 
0.27419 
0.27419 
0.17406 
0.17406 
0.10340 
0.10340 
0.04681 
0.04681 
0.08807 
0.08807 
0.18938 
0.18938 
0.14717 
0.14717 
0.15423 
0.15423 
0.07737 
0.07737 
0.22069 
0.22069 
0.05315 
0.05315 
0.11164 
0.11164 
0.15459 
0.15459 
0.08463 
0.08463 
0.15483 
0.15483 
0.06422 
0.06422 
0.24206 
0.24206 
0.11738 
0.11738 
0.16174 
0.16174 
0.20810 
0.20810 
0.22219 
0.22219 
0.22650 
0.22650 
0.10338 
0.10338 
0.19886 
0.19886 
0.10374 
0.10374 
0.09251 
0.09251 
0.17639 
0.17639 
0.12525 
0.12525 
0.21301 
0.21301 
0.10274 
0.10274 
0.05151 
0.05151 
0.11372 
0.11372 
0.14115 
0.14115 
0.17180 
0.17180 
0.15839 
0.15839 
0.14892 
0.14892 
0.13620 
0.13620 
0.12349 
0.12349 
0.15274 
0.15274 
0.07284 
0.07284 
0.14408 
0.14408 
0.08910 
0.08910 
0.12977 
0.12977 
0.08259 
0.08259 
0.34902 
0.34902 
0.25150 
0.25150 
0.05441 
0.05441 
0.11205 
0.11205 
0.13422 
0.13422 
0.21034 
0.21034 
0.09097 
0.09097 
0.08698 
0.08698 
0.12293 
0.12293 
0.12118 
0.12118 
0.14962 
0.14962 
0.10062 
0.10062 
0.14634 
0.14634 
0.15704 
0.15704 
0.28620 
0.28620 
0.17406 
0.17406 
0.05241 
0.05241 
0.10705 
0.10705 
0.28551 
0.28551 
0.19961 
0.19961 
0.08240 
0.08240 
0.24857 
0.24857 
0.24623 
0.24623 
0.21134 
0.21134 
0.12493 
0.12493 
0.10756 
0.10756 
0.18089 
0.18089 
0.13170 
0.13170 
0.12441 
0.12441 
0.20396 
0.20396 
0.14074 
0.14074 
0.10845 
0.10845 
0.18307 
0.18307 
0.09815 
0.09815 
0.08006 
0.08006 
0.14513 
0.14513 
0.04351 
0.04351 
0.06207 
0.06207 
0.16743 
0.16743 
0.15571 
0.15571 
0.06924 
0.06924 
0.13146 
0.13146 
0.12829 
0.12829 
0.19961 
0.19961 
0.14656 
0.14656 
0.07072 
0.07072 
0.15308 
0.15308 
0.29028 
0.29028 
0.12106 
0.12106 
0.07013 
0.07013 
0.23163 
0.23163 
0.17045 
0.17045 
0.21123 
0.21123 
0.19410 
0.19410 
0.22998 
0.22998 
0.06828 
0.06828 
0.07577 
0.07577 
0.22269 
0.22269 
0.12734 
0.12734 
0.13962 
0.13962 
0.22149 
0.22149 
0.13592 
0.13592 
0.06562 
0.06562 
0.08970 
0.08970 
0.08913 
0.08913 
0.16747 
0.16747 
0.20204 
0.20204 
0.15230 
0.15230 
0.08782 
0.08782 
0.11824 
0.11824 
0.08054 
0.08054 
0.22817 
0.22817 
0.26587 
0.26587 
SCALARS Umean_X double 1 
LOOKUP_TABLE default
0.09350 
0.09350 
0.04700 
0.04700 
0.06450 
0.06450 
-0.05650 
-0.05650 
0.08100 
0.08100 
0.05650 
0.05650 
0.05350 
0.05350 
0.00950 
0.00950 
-0.04450 
-0.04450 
0.00850 
0.00850 
0.00700 
0.00700 
0.00950 
0.00950 
-0.09250 
-0.09250 
0.02650 
0.02650 
0.03000 
0.03000 
0.07350 
0.07350 
0.01700 
0.01700 
-0.08700 
-0.08700 
-0.14250 
-0.14250 
0.03500 
0.03500 
0.08500 
0.08500 
-0.11800 
-0.11800 
0.01750 
0.01750 
0.03700 
0.03700 
-0.02000 
-0.02000 
0.05050 
0.05050 
0.09950 
0.09950 
0.04950 
0.04950 
0.12750 
0.12750 
-0.02500 
-0.02500 
-0.03100 
-0.03100 
0.03850 
0.03850 
0.03250 
0.03250 
0.10000 
0.10000 
-0.02850 
-0.02850 
-0.00900 
-0.00900 
0.12700 
0.12700 
0.04950 
0.04950 
0.00750 
0.00750 
-0.01300 
-0.01300 
0.06650 
0.06650 
-0.01600 
-0.01600 
0.02050 
0.02050 
0.09700 
0.09700 
0.00650 
0.00650 
-0.04300 
-0.04300 
-0.01650 
-0.01650 
0.08750 
0.08750 
0.01800 
0.01800 
0.11700 
0.11700 
0.00800 
0.00800 
0.04100 
0.04100 
-0.10650 
-0.10650 
-0.16300 
-0.16300 
0.06050 
0.06050 
-0.06050 
-0.06050 
-0.05050 
-0.05050 
-0.01350 
-0.01350 
0.02350 
0.02350 
-0.09950 
-0.09950 
-0.03000 
-0.03000 
-0.04050 
-0.04050 
-0.06400 
-0.06400 
0.11850 
0.11850 
-0.02250 
-0.02250 
0.04450 
0.04450 
0.08350 
0.08350 
0.09350 
0.09350 
0.02550 
0.02550 
0.17450 
0.17450 
0.09750 
0.09750 
-0.02250 
-0.02250 
-0.02050 
-0.02050 
0.01600 
0.01600 
0.01650 
0.01650 
0.06850 
0.06850 
-0.02400 
-0.02400 
0.06050 
0.06050 
-0.02000 
-0.02000 
0.13000 
0.13000 
-0.16050 
-0.16050 
0.03700 
0.03700 
0.08850 
0.08850 
0.03700 
0.03700 
0.05550 
0.05550 
-0.05250 
-0.05250 
-0.08600 
-0.08600 
-0.02650 
-0.02650 
0.12200 
0.12200 
0.00850 
0.00850 
-0.03850 
-0.03850 
0.05000 
0.05000 
-0.02350 
-0.02350 
0.09500 
0.09500 
-0.04550 
-0.04550 
0.03050 
0.03050 
0.09550 
0.09550 
-0.15300 
-0.15300 
-0.12950 
-0.12950 
-0.02850 
-0.02850 
-0.08000 
-0.08000 
0.05350 
0.05350 
0.03000 
0.03000 
0.08450 
0.08450 
0.00050 
0.00050 
0.04400 
0.04400 
0.01200 
0.01200 
-0.12100 
-0.12100 
0.05250 
0.05250 
0.03800 
0.03800 
0.10400 
0.10400 
0.00950 
0.00950 
0.10200 
0.10200 
0.02900 
0.02900 
0.00800 
0.00800 
0.11200 
0.11200 
-0.03100 
-0.03100 
0.13550 
0.13550 
-0.00550 
-0.00550 
-0.00000 
-0.00000 
0.01750 
0.01750 
0.04050 
0.04050 
-0.03550 
-0.03550 
0.04400 
0.04400 
0.07450 
0.07450 
-0.04850 
-0.04850 
0.02950 
0.02950 
0.04950 
0.04950 
-0.03550 
-0.03550 
0.01150 
0.01150 
0.02700 
0.02700 
-0.03300 
-0.03300 
-0.11950 
-0.11950 
0.08650 
0.08650 
-0.01450 
-0.01450 
-0.02450 
-0.02450 
0.09250 
0.09250 
-0.04100 
-0.04100 
-0.02300 
-0.02300 
-0.11950 
-0.11950 
0.01350 
0.01350 
0.00850 
0.00850 
-0.08800 
-0.08800 
0.07350 
0.07350 
0.16400 
0.16400 
-0.05300 
-0.05300 
-0.11800 
-0.11800 
-0.04400 
-0.04400 
-0.03350 
-0.03350 
-0.09450 
-0.09450 
-0.08200 
-0.08200 
-0.06550 
-0.06550 
0.04800 
0.04800 
0.09100 
0.09100 
0.02400 
0.02400 
-0.05300 
-0.05300 
0.06400 
0.06400 
0.03850 
0.03850 
-0.11000 
-0.11000 
0.05150 
0.05150 
-0.07550 
-0.07550 
0.02300 
0.02300 
-0.02250 
-0.02250 
-0.01550 
-0.01550 
0.08500 
0.08500 
0.16150 
0.16150 
-0.04200 
-0.04200 
0.01750 
0.01750 
-0.00350 
-0.00350 
-0.00200 
-0.00200 
-0.05400 
-0.05400 
0.04000 
0.04000 
-0.08200 
-0.08200 
-0.05000 
-0.05000 
-0.02050 
-0.02050 
-0.00200 
-0.00200 
0.08550 
0.08550 
0.22300 
0.22300 
0.00400 
0.00400 
0.02350 
0.02350 
-0.05000 
-0.05000 
-0.07450 
-0.07450 
-0.10750 
-0.10750 
-0.17250 
-0.17250 
0.03050 
0.03050 
-0.01400 
-0.01400 
0.03650 
0.03650 
0.10600 
0.10600 
0.06550 
0.06550 
0.07600 
0.07600 
-0.04600 
-0.04600 
0.01700 
0.01700 
0.03300 
0.03300 
0.13150 
0.13150 
0.01750 
0.01750 
0.08950 
0.08950 
-0.06600 
-0.06600 
0.04550 
0.04550 
0.04050 
0.04050 
0.00700 
0.00700 
0.16150 
0.16150 
0.13800 
0.13800 
-0.04450 
-0.04450 
-0.12300 
-0.12300 
-0.02250 
-0.02250 
-0.05700 
-0.05700 
0.05050 
0.05050 
0.11250 
0.11250 
-0.06600 
-0.06600 
0.01100 
0.01100 
0.03600 
0.03600 
-0.00150 
-0.00150 
0.02150 
0.02150 
0.01150 
0.01150 
0.00300 
0.00300 
0.00850 
0.00850 
0.04500 
0.04500 
-0.05400 
-0.05400 
0.13250 
0.13250 
-0.12150 
-0.12150 
-0.08350 
-0.08350 
0.22950 
0.22950 
-0.01900 
-0.01900 
0.06450 
0.06450 
-0.04200 
-0.04200 
0.03750 
0.03750 
0.10600 
0.10600 
-0.10450 
-0.10450 
-0.04650 
-0.04650 
-0.11100 
-0.11100 
-0.00650 
-0.00650 
0.06400 
0.06400 
-0.00350 
-0.00350 
0.15700 
0.15700 
-0.02550 
-0.02550 
0.16200 
0.16200 
0.03800 
0.03800 
-0.19950 
-0.19950 
-0.00100 
-0.00100 
0.14600 
0.14600 
-0.03800 
-0.03800 
0.09500 
0.09500 
0.10600 
0.10600 
0.06250 
0.06250 
0.01000 
0.01000 
0.04400 
0.04400 
0.05850 
0.05850 
-0.03500 
-0.03500 
-0.10550 
-0.10550 
-0.04400 
-0.04400 
0.03100 
0.03100 
0.21450 
0.21450 
0.14350 
0.14350 
0.04250 
0.04250 
0.01850 
0.01850 
-0.03950 
-0.03950 
0.13500 
0.13500 
0.11150 
0.11150 
0.09300 
0.09300 
-0.13350 
-0.13350 
-0.01100 
-0.01100 
0.15250 
0.15250 
-0.00750 
-0.00750 
-0.02500 
-0.02500 
0.07750 
0.07750 
0.01850 
0.01850 
-0.00300 
-0.00300 
0.03450 
0.03450 
0.09300 
0.09300 
-0.08700 
-0.08700 
-0.10150 
-0.10150 
0.04450 
0.04450 
-0.20050 
-0.20050 
-0.05100 
-0.05100 
0.05300 
0.05300 
0.00550 
0.00550 
-0.04000 
-0.04000 
0.11350 
0.11350 
0.06850 
0.06850 
-0.03850 
-0.03850 
-0.05350 
-0.05350 
0.09900 
0.09900 
-0.02150 
-0.02150 
0.08300 
0.08300 
0.07650 
0.07650 
0.12550 
0.12550 
0.02750 
0.02750 
-0.04450 
-0.04450 
-0.00500 
-0.00500 
-0.14300 
-0.14300 
0.03350 
0.03350 
0.01500 
0.01500 
-0.10250 
-0.10250 
0.13550 
0.13550 
0.01700 
0.01700 
-0.17700 
-0.17700 
-0.00000 
-0.00000 
0.10600 
0.10600 
0.00400 
0.00400 
-0.07200 
-0.07200 
-0.04600 
-0.04600 
-0.13000 
-0.13000 
0.00900 
0.00900 
-0.04650 
-0.04650 
-0.04350 
-0.04350 
0.03150 
0.03150 
0.03700 
0.03700 
-0.02850 
-0.02850 
0.10150 
0.10150 
-0.00050 
-0.00050 
-0.00700 
-0.00700 
-0.01650 
-0.01650 
0.02050 
0.02050 
0.06150 
0.06150 
-0.11000 
-0.11000 
-0.01700 
-0.01700 
0.11400 
0.11400 
-0.16550 
-0.16550 
0.13550 
0.13550 
0.02750 
0.02750 
0.00300 
0.00300 
0.10050 
0.10050 
0.05200 
0.05200 
-0.02200 
-0.02200 
-0.04200 
-0.04200 
0.06650 
0.06650 
-0.00950 
-0.00950 
0.10950 
0.10950 
0.03550 
0.03550 
0.06600 
0.06600 
-0.00650 
-0.00650 
-0.05000 
-0.05000 
-0.03150 
-0.03150 
0.10250 
0.10250 
0.05850 
0.05850 
0.06350 
0.06350 
-0.09850 
-0.09850 
0.03550 
0.03550 
-0.03650 
-0.03650 
-0.05700 
-0.05700 
0.00800 
0.00800 
-0.02700 
-0.02700 
0.01150 
0.01150 
0.08300 
0.08300 
0.04450 
0.04450 
-0.00950 
-0.00950 
0.12050 
0.12050 
0.11700 
0.11700 
-0.11200 
-0.11200 
-0.06350 
-0.06350 
-0.01000 
-0.01000 
0.08700 
0.08700 
0.04800 
0.04800 
-0.02950 
-0.02950 
-0.03400 
-0.03400 
0.10150 
0.10150 
-0.04300 
-0.04300 
-0.00100 
-0.00100 
0.06950 
0.06950 
0.07600 
0.07600 
-0.01000 
-0.01000 
-0.09500 
-0.09500 
-0.04000 
-0.04000 
0.00900 
0.00900 
0.11100 
0.11100 
0.03250 
0.03250 
0.02850 
0.02850 
0.10600 
0.10600 
0.06250 
0.06250 
-0.03000 
-0.03000 
0.06600 
0.06600 
0.25350 
0.25350 
0.08350 
0.08350 
-0.02800 
-0.02800 
-0.07350 
-0.07350 
0.11850 
0.11850 
-0.09250 
-0.09250 
-0.06250 
-0.06250 
-0.06150 
-0.06150 
0.08000 
0.08000 
0.01700 
0.01700 
0.13350 
0.13350 
-0.08350 
-0.08350 
0.01450 
0.01450 
0.06600 
0.06600 
0.03300 
0.03300 
0.00350 
0.00350 
-0.00550 
-0.00550 
0.09550 
0.09550 
-0.05850 
-0.05850 
-0.12050 
-0.12050 
0.02650 
0.02650 
0.07600 
0.07600 
0.09350 
0.09350 
0.09000 
0.09000 
0.02650 
0.02650 
-0.00650 
-0.00650 
0.02600 
0.02600 
0.04600 
0.04600 
0.02200 
0.02200 
0.18200 
0.18200 
-0.04650 
-0.04650 
0.08500 
0.08500 
0.05300 
0.05300 
-0.07450 
-0.07450 
0.04500 
0.04500 
0.00300 
0.00300 
-0.00900 
-0.00900 
0.02450 
0.02450 
0.11200 
0.11200 
-0.04550 
-0.04550 
-0.05950 
-0.05950 
0.04000 
0.04000 
-0.07450 
-0.07450 
0.04900 
0.04900 
0.00050 
0.00050 
-0.01550 
-0.01550 
0.05950 
0.05950 
0.15450 
0.15450 
-0.03750 
-0.03750 
-0.02200 
-0.02200 
0.02300 
0.02300 
0.03500 
0.03500 
0.06450 
0.06450 
0.02200 
0.02200 
0.13700 
0.13700 
-0.03150 
-0.03150 
0.01050 
0.01050 
-0.09400 
-0.09400 
-0.01550 
-0.01550 
0.13000 
0.13000 
-0.03650 
-0.03650 
0.07400 
0.07400 
-0.00650 
-0.00650 
-0.05950 
-0.05950 
0.04800 
0.04800 
0.06850 
0.06850 
0.09650 
0.09650 
0.13950 
0.13950 
-0.07750 
-0.07750 
-0.09600 
-0.09600 
0.07400 
0.07400 
0.08600 
0.08600 
0.06650 
0.06650 
SCALARS Umean_Y double 1 
LOOKUP_TABLE default
0.07800 
0.07800 
0.00450 
0.00450 
0.04500 
0.04500 
-0.07050 
-0.07050 
0.05100 
0.05100 
0.10050 
0.10050 
-0.11150 
-0.11150 
-0.01550 
-0.01550 
0.17950 
0.17950 
0.07550 
0.07550 
0.10650 
0.10650 
0.07150 
0.07150 
-0.14850 
-0.14850 
0.05400 
0.05400 
0.05450 
0.05450 
-0.10900 
-0.10900 
0.10650 
0.10650 
-0.01650 
-0.01650 
0.00150 
0.00150 
0.07800 
0.07800 
0.14850 
0.14850 
-0.06000 
-0.06000 
0.08050 
0.08050 
0.10700 
0.10700 
0.08250 
0.08250 
-0.01250 
-0.01250 
-0.02800 
-0.02800 
0.05050 
0.05050 
0.02400 
0.02400 
0.03050 
0.03050 
0.00100 
0.00100 
0.01200 
0.01200 
0.08950 
0.08950 
0.10950 
0.10950 
0.16600 
0.16600 
-0.01950 
-0.01950 
0.16650 
0.16650 
0.09150 
0.09150 
0.12650 
0.12650 
0.08400 
0.08400 
0.07100 
0.07100 
0.03250 
0.03250 
-0.00550 
-0.00550 
-0.00650 
-0.00650 
0.08950 
0.08950 
-0.07750 
-0.07750 
-0.01100 
-0.01100 
0.03550 
0.03550 
0.03300 
0.03300 
0.07350 
0.07350 
-0.07400 
-0.07400 
0.16350 
0.16350 
0.03100 
0.03100 
-0.10500 
-0.10500 
0.00300 
0.00300 
0.00200 
0.00200 
-0.04000 
-0.04000 
0.10350 
0.10350 
0.08000 
0.08000 
-0.12900 
-0.12900 
-0.05450 
-0.05450 
0.18100 
0.18100 
0.15250 
0.15250 
0.11450 
0.11450 
0.06550 
0.06550 
-0.07450 
-0.07450 
-0.10250 
-0.10250 
-0.02650 
-0.02650 
0.05750 
0.05750 
0.06350 
0.06350 
0.01150 
0.01150 
0.05950 
0.05950 
-0.01350 
-0.01350 
0.01550 
0.01550 
0.08000 
0.08000 
0.05950 
0.05950 
-0.07300 
-0.07300 
0.01350 
0.01350 
0.00450 
0.00450 
0.06050 
0.06050 
0.04000 
0.04000 
0.07750 
0.07750 
0.18000 
0.18000 
0.01200 
0.01200 
0.05400 
0.05400 
-0.03700 
-0.03700 
0.00500 
0.00500 
0.00300 
0.00300 
0.02150 
0.02150 
0.09400 
0.09400 
-0.08400 
-0.08400 
0.04000 
0.04000 
-0.01750 
-0.01750 
0.02550 
0.02550 
0.05500 
0.05500 
0.05150 
0.05150 
0.15750 
0.15750 
0.03500 
0.03500 
-0.02900 
-0.02900 
0.01350 
0.01350 
0.03750 
0.03750 
0.03450 
0.03450 
-0.03800 
-0.03800 
0.03900 
0.03900 
0.04850 
0.04850 
0.01250 
0.01250 
0.05200 
0.05200 
0.01000 
0.01000 
-0.07350 
-0.07350 
-0.09150 
-0.09150 
0.05350 
0.05350 
0.00050 
0.00050 
-0.01950 
-0.01950 
-0.09600 
-0.09600 
-0.00000 
-0.00000 
0.09750 
0.09750 
-0.15900 
-0.15900 
0.02350 
0.02350 
0.02950 
0.02950 
-0.10450 
-0.10450 
-0.00400 
-0.00400 
-0.02050 
-0.02050 
-0.04650 
-0.04650 
0.07650 
0.07650 
-0.04350 
-0.04350 
-0.02550 
-0.02550 
-0.05500 
-0.05500 
-0.04150 
-0.04150 
0.03900 
0.03900 
-0.00750 
-0.00750 
0.03350 
0.03350 
-0.03850 
-0.03850 
-0.02100 
-0.02100 
0.06400 
0.06400 
0.11550 
0.11550 
0.05050 
0.05050 
0.06050 
0.06050 
0.02950 
0.02950 
-0.13800 
-0.13800 
0.06400 
0.06400 
0.01700 
0.01700 
-0.00600 
-0.00600 
-0.10350 
-0.10350 
0.07000 
0.07000 
-0.00200 
-0.00200 
0.04350 
0.04350 
0.07050 
0.07050 
0.04150 
0.04150 
-0.04100 
-0.04100 
0.03400 
0.03400 
0.02650 
0.02650 
0.01950 
0.01950 
0.07500 
0.07500 
0.04550 
0.04550 
0.06300 
0.06300 
0.00300 
0.00300 
0.02350 
0.02350 
-0.00900 
-0.00900 
0.01450 
0.01450 
0.03250 
0.03250 
-0.00600 
-0.00600 
-0.20800 
-0.20800 
0.12650 
0.12650 
0.00200 
0.00200 
0.03400 
0.03400 
0.01450 
0.01450 
0.07050 
0.07050 
0.01250 
0.01250 
0.05000 
0.05000 
0.02800 
0.02800 
0.04800 
0.04800 
-0.04350 
-0.04350 
0.00050 
0.00050 
0.03350 
0.03350 
0.03750 
0.03750 
-0.05400 
-0.05400 
0.12950 
0.12950 
-0.01950 
-0.01950 
-0.01500 
-0.01500 
-0.04550 
-0.04550 
-0.06900 
-0.06900 
0.06150 
0.06150 
-0.24000 
-0.24000 
0.18650 
0.18650 
0.00400 
0.00400 
0.01500 
0.01500 
0.05400 
0.05400 