# vtk DataFile Version 2.1 
Trajects from timestep 113 with color option 
ASCII 
 
DATASET POLYDATA POINTS 1030 float 
-6.829 -4.638 -72.805 
-6.739 -4.357 -72.818 
-5.955 6.238 -72.524 
-5.891 6.384 -72.485 
-0.237 6.491 -68.437 
-0.186 6.698 -68.381 
4.582 0.234 -70.545 
4.716 0.429 -70.783 
-1.405 3.480 -70.232 
-1.361 3.650 -70.251 
1.030 9.521 -69.865 
1.078 9.722 -69.790 
-9.412 1.688 -72.740 
-9.384 1.951 -72.850 
4.504 6.638 -71.683 
4.542 6.839 -71.734 
-3.901 2.852 -72.811 
-3.747 3.175 -72.875 
5.345 0.741 -70.769 
5.471 0.940 -70.998 
8.559 -1.531 -68.235 
8.641 -1.197 -68.358 
5.720 10.183 -72.565 
5.703 10.283 -72.644 
0.356 7.621 -69.342 
0.427 7.851 -69.327 
1.504 11.073 -66.087 
1.515 11.214 -65.967 
-0.198 5.154 -76.220 
-0.148 5.278 -76.319 
4.332 -8.177 -69.719 
4.462 -8.012 -70.013 
4.622 0.893 -69.764 
4.720 1.094 -70.017 
5.205 -2.985 -73.915 
5.334 -2.776 -74.011 
6.055 -4.798 -68.357 
6.194 -4.565 -68.636 
4.351 -4.320 -71.880 
4.526 -4.138 -72.056 
-9.487 7.483 -70.518 
-9.354 7.780 -70.336 
0.485 6.922 -68.478 
0.510 7.163 -68.402 
-1.621 4.520 -72.102 
-1.490 4.720 -72.026 
0.801 11.172 -69.465 
0.697 11.366 -69.406 
-5.344 1.283 -72.511 
-5.240 1.525 -72.511 
-1.898 9.150 -68.755 
-1.792 9.384 -68.684 
1.212 8.444 -66.873 
1.239 8.645 -66.691 
4.182 10.085 -69.072 
4.162 10.285 -69.088 
6.445 -2.274 -70.384 
6.540 -1.993 -70.749 
0.961 -0.179 -68.454 
1.222 0.095 -68.564 
-3.846 5.741 -69.942 
-3.753 5.850 -69.851 
-0.284 -5.638 -68.436 
-0.069 -5.469 -68.533 
-9.910 11.256 -70.810 
-9.821 11.392 -70.745 
-5.204 2.703 -71.033 
-5.040 2.896 -71.089 
0.594 -7.823 -69.856 
0.741 -7.541 -69.944 
-0.759 8.545 -68.876 
-0.655 8.714 -68.867 
1.693 6.794 -71.961 
1.689 7.010 -71.946 
-4.233 -1.526 -64.031 
-4.196 -1.128 -64.278 
5.795 8.059 -73.152 
5.710 8.294 -73.337 
5.604 4.073 -71.601 
5.813 4.371 -71.738 
9.423 3.014 -66.176 
9.493 3.240 -66.360 
-1.258 11.157 -67.871 
-1.257 11.325 -67.891 
-1.769 8.853 -66.540 
-1.739 9.115 -66.469 
-3.306 1.182 -69.126 
-3.195 1.555 -69.143 
-13.704 10.900 -73.591 
-13.631 10.999 -73.488 
9.051 -3.523 -68.649 
9.139 -3.406 -68.760 
3.839 11.408 -70.004 
3.798 11.612 -70.047 
-6.292 -9.649 -73.694 
-6.167 -9.473 -73.628 
-1.041 12.685 -65.591 
-0.970 12.886 -65.523 
-1.952 11.163 -72.049 
-1.804 11.392 -72.094 
4.625 5.293 -73.938 
4.758 5.543 -74.025 
-9.952 11.459 -66.291 
-9.965 11.766 -66.247 
-2.851 -2.883 -71.526 
-2.723 -2.606 -71.650 
8.466 -5.840 -68.448 
8.671 -5.750 -68.673 
-0.761 2.156 -65.459 
-0.709 2.352 -65.558 
1.727 4.534 -70.496 
1.787 4.733 -70.419 
-3.946 9.312 -63.089 
-3.926 9.469 -62.896 
-12.308 4.648 -72.700 
-12.155 4.844 -72.665 
-8.009 10.957 -69.033 
-7.829 11.034 -68.942 
10.209 0.154 -66.469 
10.276 0.452 -66.506 
2.983 3.806 -69.011 
3.115 4.076 -69.068 
-6.363 1.305 -66.111 
-6.389 1.629 -66.088 
9.515 11.872 -69.924 
9.469 11.696 -70.087 
7.489 -3.149 -67.970 
7.577 -2.860 -68.328 
-14.767 -3.226 -69.879 
-14.632 -3.010 -69.957 
-10.397 4.657 -68.507 
-10.466 4.924 -68.454 
-1.208 -10.924 -70.235 
-1.044 -10.872 -70.419 
-9.244 6.458 -73.972 
-9.178 6.570 -74.061 
-2.462 8.767 -61.225 
-2.333 8.974 -61.066 
10.558 -5.612 -69.080 
10.663 -5.503 -69.285 
0.367 8.330 -64.417 
0.403 8.509 -64.279 
-3.259 -2.265 -66.627 
-3.203 -2.043 -66.768 
-3.466 7.088 -75.662 
-3.368 7.183 -75.725 
9.185 1.943 -70.205 
9.264 2.064 -70.420 
2.280 -7.751 -66.239 
2.491 -7.579 -66.377 
0.583 8.257 -76.602 
0.613 8.465 -76.714 
-11.345 6.956 -71.197 
-11.266 7.223 -71.185 
-7.993 9.212 -66.635 
-7.948 9.373 -66.627 
-8.433 11.659 -76.401 
-8.459 11.758 -76.385 
-3.489 7.609 -64.404 
-3.382 7.864 -64.230 
9.489 12.095 -66.140 
9.516 12.133 -66.084 
-6.709 -12.495 -69.523 
-6.539 -12.318 -69.819 
1.096 10.257 -67.816 
1.149 10.399 -67.740 
-10.794 9.320 -69.191 
-10.713 9.672 -69.130 
2.406 4.275 -69.337 
2.495 4.498 -69.348 
-12.649 1.834 -69.426 
-12.626 2.101 -69.665 
-3.109 5.981 -68.670 
-3.039 6.260 -68.667 
10.354 -5.081 -63.608 
10.508 -4.895 -63.791 
-9.823 5.174 -62.494 
-9.876 5.433 -62.545 
-5.358 6.375 -73.879 
-5.324 6.511 -73.993 
-0.853 10.209 -63.308 
-0.901 10.481 -63.189 
3.929 1.072 -62.226 
4.029 1.207 -62.307 
-2.320 11.640 -62.569 
-2.223 11.830 -62.320 
6.797 9.638 -75.168 
6.827 9.717 -75.436 
-1.911 -3.203 -65.722 
-1.858 -3.041 -65.960 
-7.359 -0.946 -74.727 
-7.220 -0.806 -74.925 
-4.789 9.707 -64.929 
-4.739 9.952 -64.777 
-0.345 6.117 -74.436 
-0.275 6.427 -74.384 
-7.617 0.214 -63.724 
-7.611 0.463 -63.911 
-6.959 5.501 -64.791 
-6.960 5.743 -64.786 
6.640 7.702 -65.161 
6.726 7.832 -65.190 
8.499 0.451 -66.556 
8.547 0.875 -66.680 
4.716 -8.872 -69.607 
4.859 -8.691 -69.939 
-9.889 4.404 -62.946 
-9.935 4.682 -62.929 
7.514 -1.489 -72.663 
7.748 -1.266 -72.908 
10.184 -1.414 -68.164 
10.146 -1.334 -68.145 
6.963 -0.335 -72.148 
7.153 -0.156 -72.378 
-6.010 7.856 -61.677 
-6.041 8.065 -61.651 
-9.975 5.965 -64.419 
-9.999 6.314 -64.383 
-8.020 -0.113 -66.907 
-7.886 0.181 -67.156 
-9.105 7.705 -75.342 
-9.048 7.898 -75.309 
-2.444 4.417 -61.988 
-2.360 4.701 -62.047 
-8.164 3.477 -69.695 
-8.028 3.732 -69.829 
3.920 -4.831 -65.069 
4.255 -4.648 -65.525 
13.178 -2.311 -68.820 
13.030 -2.237 -68.749 
-15.068 3.991 -71.085 
-15.028 4.265 -71.067 
11.422 11.434 -70.411 
11.516 11.219 -70.566 
2.365 0.010 -64.011 
2.427 0.151 -63.933 
-10.725 -5.974 -77.077 
-10.800 -5.702 -77.075 
-8.712 -6.380 -66.004 
-8.443 -6.173 -66.307 
13.454 1.933 -67.453 
13.590 2.129 -67.503 
-5.557 -1.549 -69.940 
-5.563 -1.255 -69.957 
-0.645 0.475 -64.004 
-0.495 0.667 -63.912 
3.773 -7.819 -74.243 
3.888 -7.701 -74.547 
3.805 -2.519 -65.393 
4.078 -2.303 -65.602 
9.572 -2.511 -67.015 
9.619 -2.295 -67.086 
15.357 7.318 -70.510 
15.500 7.490 -70.732 
-7.338 1.750 -61.524 
-7.347 1.936 -61.516 
0.112 0.012 -62.713 
0.212 0.051 -62.867 
4.591 9.600 -75.530 
4.541 9.720 -75.764 
7.970 4.316 -68.304 
8.159 4.528 -68.419 
11.681 -7.231 -65.755 
11.683 -7.068 -65.748 
14.556 2.866 -67.999 
14.737 2.924 -68.129 
-2.136 -7.799 -69.346 
-2.001 -7.728 -69.385 
-5.102 12.324 -66.507 
-4.952 12.626 -66.409 
-10.026 6.334 -74.456 
-9.910 6.372 -74.502 
5.256 11.602 -75.222 
5.165 11.703 -75.364 
-3.562 5.379 -61.991 
-3.548 5.609 -61.965 
-3.785 -6.017 -64.339 
-3.637 -6.022 -64.602 
-3.475 -6.170 -72.897 
-3.475 -5.931 -72.905 
0.201 1.181 -73.569 
0.281 1.423 -73.614 
-0.749 11.269 -70.327 
-0.758 11.456 -70.344 
-13.114 2.761 -73.295 
-13.184 3.021 -73.215 
11.685 8.528 -69.948 
11.719 8.289 -70.069 
-11.617 0.219 -66.682 
-11.552 0.594 -67.039 
6.373 10.796 -71.553 
6.325 10.899 -71.664 
6.014 -0.844 -72.920 
6.253 -0.540 -73.204 
5.888 11.113 -70.346 
5.831 11.182 -70.451 
10.225 -10.548 -65.004 
10.359 -10.412 -65.147 
-1.799 -9.564 -68.465 
-1.650 -9.509 -68.548 
-10.282 -9.005 -67.591 
-10.256 -8.954 -67.693 
1.917 -1.275 -69.387 
2.081 -1.027 -69.558 
-10.502 2.037 -71.632 
-10.571 2.277 -71.852 
-8.682 2.092 -63.753 
-8.586 2.264 -64.004 
4.053 5.422 -63.511 
4.052 5.660 -63.610 
-15.487 -4.605 -70.571 
-15.349 -4.347 -70.505 
-7.093 6.941 -75.547 
-7.029 7.072 -75.550 
-2.675 2.801 -62.639 
-2.641 2.969 -62.605 
14.111 0.558 -68.320 
14.110 0.580 -68.340 
14.601 2.288 -69.243 
14.556 2.349 -69.281 
-7.636 8.834 -63.506 
-7.619 9.189 -63.565 
-11.553 3.343 -75.046 
-11.510 3.480 -75.258 
-0.953 4.603 -67.159 
-0.820 4.784 -67.089 
-0.772 -10.844 -65.144 
-0.624 -10.695 -65.076 
-4.078 -11.632 -67.654 
-3.922 -11.491 -67.807 
-2.706 1.890 -69.069 
-2.496 2.189 -69.010 
-8.885 -12.574 -66.843 
-8.751 -12.543 -67.051 
3.419 1.433 -66.471 
3.477 1.659 -66.569 
-1.233 11.661 -64.005 
-1.268 11.928 -63.895 
17.186 8.431 -67.010 
17.388 8.647 -66.994 
-0.858 -12.771 -67.266 
-0.726 -12.633 -67.362 
7.634 3.084 -70.065 
7.911 3.366 -70.271 
-12.825 9.590 -67.736 
-12.923 9.897 -67.917 
5.437 -12.270 -66.953 
5.469 -12.202 -67.160 
-1.473 2.439 -60.586 
-1.338 2.687 -60.719 
12.079 -0.028 -67.023 
12.178 0.109 -67.046 
-6.415 -8.748 -67.469 
-6.496 -8.689 -67.584 
9.603 -6.002 -70.209 
9.724 -5.947 -70.284 
4.197 -0.955 -71.590 
4.266 -0.724 -71.768 
15.481 -4.708 -70.350 
15.613 -4.632 -70.300 
3.725 5.669 -66.125 
3.848 5.799 -66.239 
16.379 4.029 -71.784 
16.312 4.038 -71.859 
7.306 7.445 -72.436 
7.322 7.583 -72.608 
-0.583 10.962 -72.179 
-0.540 11.176 -72.274 
-9.776 -10.291 -74.342 
-9.747 -10.189 -74.520 
-2.604 -5.651 -77.714 
-2.441 -5.719 -77.566 
14.195 11.629 -68.553 
14.230 11.480 -68.539 
-11.632 11.536 -65.887 
-11.646 11.737 -65.699 
9.831 10.282 -68.246 
9.918 10.401 -68.385 
12.653 -3.774 -69.132 
12.658 -3.769 -69.044 
-0.555 -12.200 -67.831 
-0.418 -12.110 -67.968 
-10.368 -2.834 -72.336 
-10.297 -2.490 -72.393 
11.781 -0.071 -71.799 
11.727 0.044 -71.839 
-2.188 10.121 -67.668 
-2.103 10.325 -67.566 
8.220 -9.423 -67.115 
8.271 -9.182 -67.220 
16.742 -0.236 -67.586 
16.707 -0.151 -67.599 
-2.381 -12.071 -64.953 
-2.087 -11.946 -64.948 
3.034 3.414 -57.288 
3.158 3.553 -57.435 
-7.682 -6.444 -66.357 
-7.471 -6.323 -66.554 
3.936 8.859 -71.482 
3.881 9.115 -71.530 
10.518 2.757 -62.559 
10.558 3.043 -62.519 
-0.944 1.068 -64.921 
-0.863 1.341 -64.984 
11.634 -2.954 -68.545 
11.600 -2.854 -68.469 
-13.372 0.778 -76.026 
-13.519 0.944 -76.072 
11.636 2.588 -65.689 
11.657 2.821 -65.737 
-13.404 10.867 -68.716 
-13.478 11.149 -68.712 
-6.563 -9.296 -66.478 
-6.606 -9.228 -66.728 
15.179 8.113 -71.856 
15.313 8.130 -72.125 
4.233 -1.250 -69.138 
4.375 -1.074 -69.324 
8.099 -6.093 -74.081 
8.300 -6.035 -74.329 
4.182 -10.838 -68.476 
4.310 -10.743 -68.760 
15.100 -5.336 -70.207 
15.329 -5.264 -70.088 
-7.574 -11.580 -76.458 
-7.302 -11.402 -76.523 
8.039 6.660 -63.978 
8.125 6.843 -64.002 
-4.771 -7.752 -66.033 
-4.601 -7.777 -66.280 
9.754 -7.150 -63.676 
9.939 -6.926 -63.905 
-8.267 0.674 -69.231 
-8.108 1.076 -69.421 
-0.390 -5.583 -70.261 
-0.154 -5.331 -70.314 
-8.961 -8.280 -74.285 
-8.913 -8.172 -74.451 
-10.552 10.807 -70.369 
-10.457 10.987 -70.452 
1.597 4.093 -61.673 
1.656 4.316 -61.638 
6.364 -0.048 -72.762 
[...]
POINT_DATA 1030 
SCALARS Umean double 1 
LOOKUP_TABLE default
0.14767 
0.14767 
0.08206 
0.08206 
0.11021 
0.11021 
0.16780 
0.16780 
0.08831 
0.08831 
0.10992 
0.10992 
0.14322 
0.14322 
0.10541 
0.10541 
0.18176 
0.18176 
0.16425 
0.16425 
0.18263 
0.18263 
0.06428 
0.06428 
0.12059 
0.12059 
0.09274 
0.09274 
0.08318 
0.08318 
0.18067 
0.18067 
0.16883 
0.16883 
0.13185 
0.13185 
0.19458 
0.19458 
0.15389 
0.15389 
0.18643 
0.18643 
0.12697 
0.12697 
0.12544 
0.12544 
0.11394 
0.11394 
0.13170 
0.13170 
0.13326 
0.13326 
0.13625 
0.13625 
0.10082 
0.10082 
0.23517 
0.23517 
0.19704 
0.19704 
0.08487 
0.08487 
0.14508 
0.14508 
0.08752 
0.08752 
0.12969 
0.12969 
0.16498 
0.16498 
0.09932 
0.09932 
0.10828 
0.10828 
0.23494 
0.23494 
0.15546 
0.15546 
0.19446 
0.19446 
0.14986 
0.14986 
0.08459 
0.08459 
0.13655 
0.13655 
0.19477 
0.19477 
0.08022 
0.08022 
0.09186 
0.09186 
0.10624 
0.10624 
0.11287 
0.11287 
0.11188 
0.11188 
0.13818 
0.13818 
0.14812 
0.14812 
0.15520 
0.15520 
0.16469 
0.16469 
0.15871 
0.15871 
0.11283 
0.11283 
0.11083 
0.11083 
0.12480 
0.12480 
0.12555 
0.12555 
0.10795 
0.10795 
0.15384 
0.15384 
0.15295 
0.15295 
0.16293 
0.16293 
0.12213 
0.12213 
0.23422 
0.23422 
0.13320 
0.13320 
0.14041 
0.14041 
0.12595 
0.12595 
0.07877 
0.07877 
0.14558 
0.14558 
0.12741 
0.12741 
0.11443 
0.11443 
0.13444 
0.13444 
0.07516 
0.07516 
0.12953 
0.12953 
0.15260 
0.15260 
0.11907 
0.11907 
0.13935 
0.13935 
0.08368 
0.08368 
0.05180 
0.05180 
0.16336 
0.16336 
0.03643 
0.03643 
0.19225 
0.19225 
0.08478 
0.08478 
0.18316 
0.18316 
0.12018 
0.12018 
0.17954 
0.17954 
0.14383 
0.14383 
0.15149 
0.15149 
0.13462 
0.13462 
0.09034 
0.09034 
0.15037 
0.15037 
0.09326 
0.09326 
0.16394 
0.16394 
0.14050 
0.14050 
0.14637 
0.14637 
0.13975 
0.13975 
0.14631 
0.14631 
0.16102 
0.16102 
0.15573 
0.15573 
0.12103 
0.12103 
0.07927 
0.07927 
0.22218 
0.22218 
0.20213 
0.20213 
0.14115 
0.14115 
0.20280 
0.20280 
0.04529 
0.04529 
0.17395 
0.17395 
0.10644 
0.10644 
0.17584 
0.17584 
0.20396 
0.20396 
0.10196 
0.10196 
0.15099 
0.15099 
0.15928 
0.15928 
0.29734 
0.29734 
0.09003 
0.09003 
0.13874 
0.13874 
0.14061 
0.14061 
0.08633 
0.08633 
0.14108 
0.14108 
0.22750 
0.22750 
0.12187 
0.12187 
0.14728 
0.14728 
0.13022 
0.13022 
0.17289 
0.17289 
0.20302 
0.20302 
0.11609 
0.11609 
0.15757 
0.15757 
0.09319 
0.09319 
0.09386 
0.09386 
0.13384 
0.13384 
0.15321 
0.15321 
0.08158 
0.08158 
0.11514 
0.11514 
0.07872 
0.07872 
0.17558 
0.17558 
0.06522 
0.06522 
0.09829 
0.09829 
0.11594 
0.11594 
0.15091 
0.15091 
0.11957 
0.11957 
0.12941 
0.12941 
0.09399 
0.09399 
0.14045 
0.14045 
0.13502 
0.13502 
0.26091 
0.26091 
0.07943 
0.07943 
0.23989 
0.23989 
0.06898 
0.06898 
0.11927 
0.11927 
0.08960 
0.08960 
0.05848 
0.05848 
0.17149 
0.17149 
0.16640 
0.16640 
0.15953 
0.15953 
0.12889 
0.12889 
0.14997 
0.14997 
0.07291 
0.07291 
0.08737 
0.08737 
0.01487 
0.01487 
0.04240 
0.04240 
0.18014 
0.18014 
0.12803 
0.12803 
0.11763 
0.11763 
0.11037 
0.11037 
0.13002 
0.13002 
0.18506 
0.18506 
0.12468 
0.12468 
0.12653 
0.12653 
0.14544 
0.14544 
0.14808 
0.14808 
0.10687 
0.10687 
0.22287 
0.22287 
0.18481 
0.18481 
0.11011 
0.11011 
0.15606 
0.15606 
0.08529 
0.08529 
0.07627 
0.07627 
0.07631 
0.07631 
0.14984 
0.14984 
0.08016 
0.08016 
0.10610 
0.10610 
0.05049 
0.05049 
0.11055 
0.11055 
0.11903 
0.11903 
0.10360 
0.10360 
0.11521 
0.11521 
0.07685 
0.07685 
0.13779 
0.13779 
0.10131 
0.10131 
0.04414 
0.04414 
0.10682 
0.10682 
0.17792 
0.17792 
0.06660 
0.06660 
0.12170 
0.12170 
0.13389 
0.13389 
0.04642 
0.04642 
0.15975 
0.15975 
0.11864 
0.11864 
0.15650 
0.15650 
0.13310 
0.13310 
0.14577 
0.14577 
0.14582 
0.14582 
0.06506 
0.06506 
0.11323 
0.11323 
0.11941 
0.11941 
0.14579 
0.14579 
0.13131 
0.13131 
0.15050 
0.15050 
0.14640 
0.14640 
0.16223 
0.16223 
0.16284 
0.16284 
0.13396 
0.13396 
0.16575 
0.16575 
0.10181 
0.10181 
0.15044 
0.15044 
0.18496 
0.18496 
0.23611 
0.23611 
0.17465 
0.17465 
0.10189 
0.10189 
0.10990 
0.10990 
0.11666 
0.11666 
0.22115 
0.22115 
0.10981 
0.10981 
0.20791 
0.20791 
0.29319 
0.29319 
0.11451 
0.11451 
0.11991 
0.11991 
0.12711 
0.12711 
0.07807 
0.07807 
0.24951 
0.24951 
0.12281 
0.12281 
0.09068 
0.09068 
0.09639 
0.09639 
0.11174 
0.11174 
0.11348 
0.11348 
0.08709 
0.08709 
0.14451 
0.14451 
0.12025 
0.12025 
0.10609 
0.10609 
0.07993 
0.07993 
0.09451 
0.09451 
0.14789 
0.14789 
0.08223 
0.08223 
0.05525 
0.05525 
0.17036 
0.17036 
0.17298 
0.17298 
0.13511 
0.13511 
0.13661 
0.13661 
0.03760 
0.03760 
0.10605 
0.10605 
0.13063 
0.13063 
0.09786 
0.09786 
0.23931 
0.23931 
0.15824 
0.15824 
0.10799 
0.10799 
0.09440 
0.09440 
0.06463 
0.06463 
0.19446 
0.19446 
0.11505 
0.11505 
0.15996 
0.15996 
0.12634 
0.12634 
0.15003 
0.15003 
0.11388 
0.11388 
0.07306 
0.07306 
0.17499 
0.17499 
0.19399 
0.19399 
0.07420 
0.07420 
0.19845 
0.19845 
0.06342 
0.06342 
0.09568 
0.09568 
0.16523 
0.16523 
0.13417 
0.13417 
0.18329 
0.18329 
0.18038 
0.18038 
0.20800 
0.20800 
0.18634 
0.18634 
0.10857 
0.10857 
0.03976 
0.03976 
0.14146 
0.14146 
0.12724 
0.12724 
0.12424 
0.12424 
0.16148 
0.16148 
0.06653 
0.06653 
0.12038 
0.12038 
0.14553 
0.14553 
0.10300 
0.10300 
0.12161 
0.12161 
0.11756 
0.11756 
0.13975 
0.13975 
0.17051 
0.17051 
0.20487 
0.20487 
0.13264 
0.13264 
0.11528 
0.11528 
0.16416 
0.16416 
0.07033 
0.07033 
0.14608 
0.14608 
0.20007 
0.20007 
0.16351 
0.16351 
0.07266 
0.07266 
0.11858 
0.11858 
0.04506 
0.04506 
0.17495 
0.17495 
0.18470 
0.18470 
0.11034 
0.11034 
0.09898 
0.09898 
0.11522 
0.11522 
0.17729 
0.17729 
0.13217 
0.13217 
0.06488 
0.06488 
0.13576 
0.13576 
0.11579 
0.11579 
0.17108 
0.17108 
0.07004 
0.07004 
0.13827 
0.13827 
0.12741 
0.12741 
0.13021 
0.13021 
0.05243 
0.05243 
0.12378 
0.12378 
0.15837 
0.15837 
0.06584 
0.06584 
0.13533 
0.13533 
0.12693 
0.12693 
0.12995 
0.12995 
0.13427 
0.13427 
0.04527 
0.04527 
0.16353 
0.16353 
0.10270 
0.10270 
0.08042 
0.08042 
0.14654 
0.14654 
0.11611 
0.11611 
0.14081 
0.14081 
0.16971 
0.16971 
0.11639 
0.11639 
0.19160 
0.19160 
0.09706 
0.09706 
0.19091 
0.19091 
0.13373 
0.13373 
0.10339 
0.10339 
0.08025 
0.08025 
0.11003 
0.11003 
0.14569 
0.14569 
0.24861 
0.24861 
0.20843 
0.20843 
0.09555 
0.09555 
0.15220 
0.15220 
0.18380 
0.18380 
0.18974 
0.18974 
0.07629 
0.07629 
0.10997 
0.10997 
0.10560 
0.10560 
0.09146 
0.09146 
0.28430 
0.28430 
0.07990 
0.07990 
0.04421 
0.04421 
0.16894 
0.16894 
0.11747 
0.11747 
0.08222 
0.08222 
0.09143 
0.09143 
0.10250 
0.10250 
0.24648 
0.24648 
0.13071 
0.13071 
0.10637 
0.10637 
0.13046 
0.13046 
0.14210 
0.14210 
0.05050 
0.05050 
0.20185 
0.20185 
0.16128 
0.16128 
0.14338 
0.14338 
0.10577 
0.10577 
0.07333 
0.07333 
0.14963 
0.14963 
0.09659 
0.09659 
0.17590 
0.17590 
0.10425 
0.10425 
0.16821 
0.16821 
0.12016 
0.12016 
0.13946 
0.13946 
0.13588 
0.13588 
0.10038 
0.10038 
0.17129 
0.17129 
0.13817 
0.13817 
0.13727 
0.13727 
0.16046 
0.16046 
0.07425 
0.07425 
0.19044 
0.19044 
0.12423 
0.12423 
0.18416 
0.18416 
0.16055 
0.16055 
0.09795 
0.09795 
0.14051 
0.14051 
0.18149 
0.18149 
0.20796 
0.20796 
0.08733 
0.08733 
0.10266 
0.10266 
0.08427 
0.08427 
0.16394 
0.16394 
0.25933 
0.25933 
0.04279 
0.04279 
0.09055 
0.09055 
0.11231 
0.11231 
0.23664 
0.23664 
0.07224 
0.07224 
0.07575 
0.07575 
0.14798 
0.14798 
0.08938 
0.08938 
0.18448 
0.18448 
0.16196 
0.16196 
0.27713 
0.27713 
0.13295 
0.13295 
0.13370 
0.13370 
0.22723 
0.22723 
0.11073 
0.11073 
0.13939 
0.13939 
0.09595 
0.09595 
0.09460 
0.09460 
0.17176 
0.17176 
0.10506 
0.10506 
0.15006 
0.15006 
0.04056 
0.04056 
0.11486 
0.11486 
0.18194 
0.18194 
0.08871 
0.08871 
0.17315 
0.17315 
0.12302 
0.12302 
0.07741 
0.07741 
0.10890 
0.10890 
0.10637 
0.10637 
0.14593 
0.14593 
0.13379 
0.13379 
0.12195 
0.12195 
0.08725 
0.08725 
0.08370 
0.08370 
0.15401 
0.15401 
0.17739 
0.17739 
0.17400 
0.17400 
0.07346 
0.07346 
0.09452 
0.09452 
0.15571 
0.15571 
0.14408 
0.14408 
0.06121 
0.06121 
0.06231 
0.06231 
0.17935 
0.17935 
0.06608 
0.06608 
0.09958 
0.09958 
0.07741 
0.07741 
0.08596 
0.08596 
0.15474 
0.15474 
0.10837 
0.10837 
0.11923 
0.11923 
0.05776 
0.05776 
0.24865 
0.24865 
0.04676 
0.04676 
0.18473 
0.18473 
0.06587 
0.06587 
0.08687 
0.08687 
0.08149 
0.08149 
0.16135 
0.16135 
0.11749 
0.11749 
0.12994 
0.12994 
0.16805 
0.16805 
0.11877 
0.11877 
0.11382 
0.11382 
0.19575 
0.19575 
0.06780 
0.06780 
0.11601 
0.11601 
0.10570 
0.10570 
0.08393 
0.08393 
0.08324 
0.08324 
0.08043 
0.08043 
0.14940 
0.14940 
0.12970 
0.12970 
0.10778 
0.10778 
0.15662 
0.15662 
0.08641 
0.08641 
0.15129 
0.15129 
0.10010 
0.10010 
0.19282 
0.19282 
0.08273 
0.08273 
0.25087 
0.25087 
0.06065 
0.06065 
0.12051 
0.12051 
0.09464 
0.09464 
0.12842 
0.12842 
0.09566 
0.09566 
0.19388 
0.19388 
0.14502 
0.14502 
0.08022 
0.08022 
0.05891 
0.05891 
0.19880 
0.19880 
0.06030 
0.06030 
0.06186 
0.06186 
0.12537 
0.12537 
0.06221 
0.06221 
0.12121 
0.12121 
0.14167 
0.14167 
0.10855 
0.10855 
0.08806 
0.08806 
0.16001 
0.16001 
0.13045 
0.13045 
0.08556 
0.08556 
0.12784 
0.12784 
0.21835 
0.21835 
0.10144 
0.10144 
0.09772 
0.09772 
0.19151 
0.19151 
0.07022 
0.07022 
0.16863 
0.16863 
0.13629 
0.13629 
0.11106 
0.11106 
0.21843 
0.21843 
0.16697 
0.16697 
0.13803 
0.13803 
0.10624 
0.10624 
0.08112 
0.08112 
0.12997 
0.12997 
SCALARS Umean_X double 1 
LOOKUP_TABLE default
0.04500 
0.04500 
0.03200 
0.03200 
0.02550 
0.02550 
0.06700 
0.06700 
0.02200 
0.02200 
0.02400 
0.02400 
0.01400 
0.01400 
0.01900 
0.01900 
0.07700 
0.07700 
0.06300 
0.06300 
0.04100 
0.04100 
-0.00850 
-0.00850 
0.03550 
0.03550 
0.00550 
0.00550 
0.02500 
0.02500 
0.06500 
0.06500 
0.04900 
0.04900 
0.06450 
0.06450 
0.06950 
0.06950 
0.08750 
0.08750 
0.06650 
0.06650 
0.01250 
0.01250 
0.06550 
0.06550 
-0.05200 
-0.05200 
0.05200 
0.05200 
0.05300 
0.05300 
0.01350 
0.01350 
-0.01000 
-0.01000 
0.04750 
0.04750 
0.13050 
0.13050 
0.04650 
0.04650 
0.10750 
0.10750 
0.04450 
0.04450 
0.08200 
0.08200 
0.07350 
0.07350 
0.05200 
0.05200 
-0.00200 
-0.00200 
0.01850 
0.01850 
-0.04250 
-0.04250 
0.10450 
0.10450 
0.03500 
0.03500 
0.00050 
0.00050 
0.01500 
0.01500 
0.05550 
0.05550 
0.03650 
0.03650 
0.04400 
0.04400 
-0.02050 
-0.02050 
0.06250 
0.06250 
0.03550 
0.03550 
0.07400 
0.07400 
0.06650 
0.06650 
-0.00650 
-0.00650 
0.06400 
0.06400 
0.10250 
0.10250 
0.02600 
0.02600 
0.03000 
0.03000 
0.01000 
0.01000 
0.07650 
0.07650 
0.09000 
0.09000 
0.03350 
0.03350 
0.06600 
0.06600 
-0.01300 
-0.01300 
-0.02300 
-0.02300 
0.04400 
0.04400 
0.06750 
0.06750 
-0.03450 
-0.03450 
0.08200 
0.08200 
0.03300 
0.03300 
0.06450 
0.06450 
0.05250 
0.05250 
0.01800 
0.01800 
0.02800 
0.02800 
0.04900 
0.04900 
0.03950 
0.03950 
0.10550 
0.10550 
0.01500 
0.01500 
0.03950 
0.03950 
0.02250 
0.02250 
-0.01300 
-0.01300 
0.05350 
0.05350 
0.01350 
0.01350 
0.08500 
0.08500 
0.02650 
0.02650 
0.04050 
0.04050 
0.04450 
0.04450 
0.01150 
0.01150 
0.03500 
0.03500 
0.07700 
0.07700 
-0.02650 
-0.02650 
0.01700 
0.01700 
-0.02400 
-0.02400 
0.05000 
0.05000 
0.04850 
0.04850 
0.01500 
0.01500 
0.02650 
0.02650 
0.06950 
0.06950 
0.02500 
0.02500 
0.03500 
0.03500 
0.00300 
0.00300 
-0.00050 
-0.00050 
0.04300 
0.04300 
0.02400 
0.02400 
0.07150 
0.07150 
-0.02300 
-0.02300 
0.11700 
0.11700 
-0.01900 
-0.01900 
0.09500 
0.09500 
-0.01550 
-0.01550 
-0.01200 
-0.01200 
0.06700 
0.06700 
0.02850 
0.02850 
0.04200 
0.04200 
0.06800 
0.06800 
0.16750 
0.16750 
-0.07400 
-0.07400 
0.02000 
0.02000 
0.04700 
0.04700 
0.03100 
0.03100 
-0.03750 
-0.03750 
0.13450 
0.13450 
0.06800 
0.06800 
-0.00300 
-0.00300 
0.07500 
0.07500 
0.05750 
0.05750 
0.13650 
0.13650 
0.02350 
0.02350 
0.07150 
0.07150 
-0.00450 
-0.00450 
0.05000 
0.05000 
-0.02500 
-0.02500 
0.09450 
0.09450 
0.00100 
0.00100 
0.09050 
0.09050 
0.06750 
0.06750 
0.07500 
0.07500 
0.05800 
0.05800 
-0.04550 
-0.04550 
0.00700 
0.00700 
0.07400 
0.07400 
-0.00000 
-0.00000 
0.04000 
0.04000 
-0.00450 
-0.00450 
-0.03500 
-0.03500 
0.01700 
0.01700 
0.03250 
0.03250 
-0.02400 
-0.02400 
0.11950 
0.11950 
-0.02850 
-0.02850 
0.06700 
0.06700 
0.07450 
0.07450 
0.01300 
0.01300 
0.08200 
0.08200 
-0.03450 
-0.03450 
0.04800 
0.04800 
-0.00050 
-0.00050 
0.06900 
0.06900 
0.03200 
0.03200 
0.01700 
0.01700 
-0.00050 
-0.00050 
-0.02250 
-0.02250 
0.00850 
0.00850 
0.02150 
0.02150 
0.06650 
0.06650 
0.07400 
0.07400 
0.07800 
0.07800 
0.10500 
0.10500 
0.06700 
0.06700 
0.02900 
0.02900 
-0.01750 
-0.01750 
0.10100 
0.10100 
0.06600 
0.06600 
0.13850 
0.13850 
-0.04900 
-0.04900 
0.01600 
0.01600 
0.06750 
0.06750 
0.04950 
0.04950 
-0.04050 
-0.04050 
0.06050 
0.06050 
0.03450 
0.03450 
0.06600 
0.06600 
0.06150 
0.06150 
-0.03350 
-0.03350 
0.00800 
0.00800 
0.02150 
0.02150 
0.01450 
0.01450 
0.08150 
0.08150 
0.01750 
0.01750 
-0.00700 
-0.00700 
0.04350 
0.04350 
0.00250 
0.00250 
0.06850 
0.06850 
0.03550 
0.03550 
-0.02700 
-0.02700 
0.04250 
0.04250 
0.02550 
0.02550 
-0.01750 
-0.01750 
0.14700 
0.14700 
0.06200 
0.06200 
0.10550 
0.10550 
-0.02750 
-0.02750 
0.02000 
0.02000 
0.04050 
0.04050 
-0.01700 
-0.01700 
-0.07350 
-0.07350 
0.01050 
0.01050 
-0.03700 
-0.03700 
-0.02150 
-0.02150 
0.06700 
0.06700 
0.07100 
0.07100 
0.10050 
0.10050 
0.06400 
0.06400 
0.11450 
0.11450 
0.13600 
0.13600 
0.04300 
0.04300 
0.08500 
0.08500 
0.09250 
0.09250 
0.07950 
0.07950 
0.11800 
0.11800 
0.02400 
0.02400 
0.04750 
0.04750 
0.02950 
0.02950 
0.09900 
0.09900 
-0.03150 
-0.03150 
0.08900 
0.08900 
0.08050 
0.08050 
-0.03850 
-0.03850 
-0.02600 
-0.02600 
0.03650 
0.03650 
0.03300 
0.03300 
0.06350 
0.06350 
0.03750 
0.03750 
0.08050 
0.08050 
0.08400 
0.08400 
0.06950 
0.06950 
0.05600 
0.05600 
-0.00150 
-0.00150 
0.08300 
0.08300 
0.05400 
0.05400 
0.06850 
0.06850 
0.03000 
0.03000 
0.07250 
0.07250 
0.09850 
0.09850 
0.06900 
0.06900 
0.02350 
0.02350 
0.13200 
0.13200 
0.03250 
0.03250 
0.02200 
0.02200 
0.03000 
0.03000 
0.01800 
0.01800 
0.03350 
0.03350 
0.06300 
0.06300 
-0.07550 
-0.07550 
0.00800 
0.00800 
0.08000 
0.08000 
0.07950 
0.07950 
0.04300 
0.04300 
0.04600 
0.04600 
0.05050 
0.05050 
-0.01400 
-0.01400 
0.08400 
0.08400 
-0.00050 
-0.00050 
0.03000 
0.03000 
0.07100 
0.07100 
0.01900 
0.01900 
0.01100 
0.01100 
0.07450 
0.07450 
0.01400 
0.01400 
0.14250 
0.14250 
0.06050 
0.06050 
-0.05900 
-0.05900 
0.08950 
0.08950 
0.04800 
0.04800 
0.09150 
0.09150 
0.03000 
0.03000 
0.05350 
0.05350 
0.05900 
0.05900 
-0.05500 
-0.05500 
0.01600 
0.01600 
-0.00900 
-0.00900 
0.11100 
0.11100 
0.01450 
0.01450 
0.04650 
0.04650 
0.01850 
0.01850 
0.07050 
0.07050 
0.09650 
0.09650 
0.05500 
0.05500 
-0.00650 
-0.00650 
0.05600 
0.05600 
0.05200 
0.05200 
0.09000 
0.09000 
0.00850 
0.00850 
0.01050 
0.01050 
0.05200 
0.05200 
0.01750 
0.01750 
-0.00550 
-0.00550 
-0.00200 
-0.00200 
0.15050 
0.15050 
0.07150 
0.07150 
-0.00900 
-0.00900 
0.08450 
0.08450 
-0.00700 
-0.00700 
0.03950 
0.03950 
0.08800 
0.08800 
-0.04400 
-0.04400 
-0.01000 
-0.01000 
-0.00650 
-0.00650 
0.01300 
0.01300 
0.06650 
0.06650 
0.02800 
0.02800 
0.00800 
0.00800 
-0.03250 
-0.03250 
0.09750 
0.09750 
0.02700 
0.02700 
0.09250 
0.09250 
0.00450 
0.00450 
0.07650 
0.07650 
0.01800 
0.01800 
0.06000 
0.06000 
0.09500 
0.09500 
-0.06150 
-0.06150 
0.08500 
0.08500 
0.04650 
0.04650 
0.06450 
0.06450 
0.07350 
0.07350 
0.02200 
0.02200 
0.03100 
0.03100 
0.02250 
0.02250 
0.01900 
0.01900 
0.00350 
0.00350 
0.06750 
0.06750 
0.02750 
0.02750 
0.09050 
0.09050 
0.08250 
0.08250 
0.06850 
0.06850 
0.00250 
0.00250 
0.01300 
0.01300 
0.08900 
0.08900 
-0.00550 
-0.00550 
0.01300 
0.01300 
-0.06900 
-0.06900 
0.12400 
0.12400 
-0.00450 
-0.00450 
0.14100 
0.14100 
0.05250 
0.05250 
0.05000 
0.05000 
0.02550 
0.02550 
0.03050 
0.03050 
0.05700 
0.05700 
0.10750 
0.10750 
0.05700 
0.05700 
0.06050 
0.06050 
0.13650 
0.13650 
0.04650 
0.04650 
0.01100 
0.01100 
0.10850 
0.10850 
0.08800 
0.08800 
0.00500 
0.00500 
0.03950 
0.03950 
-0.05900 
-0.05900 
0.10200 
0.10200 
0.06850 
0.06850 
0.09050 
0.09050 
0.02750 
0.02750 
0.07750 
0.07750 
-0.02800 
-0.02800 
0.06950 
0.06950 
0.00650 
0.00650 
0.03400 
0.03400 
0.05750 
0.05750 
0.04800 
0.04800 
0.09300 
0.09300 
0.01850 
0.01850 
0.04750 
0.04750 
0.07850 
0.07850 
0.09100 
0.09100 
0.04300 
0.04300 
0.09550 
0.09550 
0.01450 
0.01450 
0.06050 
0.06050 
0.07800 
0.07800 
0.07450 
0.07450 
0.07850 
0.07850 
0.10500 
0.10500 
0.00050 
0.00050 
0.08550 
0.08550 
0.08050 
0.08050 
0.05450 
0.05450 
0.05650 
0.05650 
0.09400 
0.09400 
0.09350 
0.09350 
0.07750 
0.07750 
0.08100 
0.08100 
0.05100 
0.05100 
0.02850 
0.02850 
-0.00400 
-0.00400 
0.09900 
0.09900 
0.12000 
0.12000 
-0.00400 
-0.00400 
0.05000 
0.05000 
-0.09300 
-0.09300 
0.09650 
0.09650 
0.04600 
0.04600 
0.03900 
0.03900 
0.11500 
0.11500 
0.01850 
0.01850 
0.03000 
0.03000 
0.02200 
0.02200 
0.15700 
0.15700 
0.03100 
0.03100 
0.10950 
0.10950 
0.10150 
0.10150 
-0.00100 
-0.00100 
-0.01950 
-0.01950 
0.06050 
0.06050 
0.03800 
0.03800 
0.07700 
0.07700 
0.02250 
0.02250 
0.03950 
0.03950 
0.02100 
0.02100 
0.08000 
0.08000 
0.07600 
0.07600 
-0.04800 
-0.04800 
0.00750 
0.00750 
0.07950 
0.07950 
0.05600 
0.05600 
0.08800 
0.08800 
-0.03700 
-0.03700 
0.00400 
0.00400 
0.06200 
0.06200 
0.07100 
0.07100 
-0.01000 
-0.01000 
-0.04000 
-0.04000 
-0.02150 
-0.02150 
0.02900 
0.02900 
-0.01100 
-0.01100 
-0.01250 
-0.01250 
0.00750 
0.00750 
0.11300 
0.11300 
0.03050 
0.03050 
0.04950 
0.04950 
0.03900 
0.03900 
0.04650 
0.04650 
0.03450 
0.03450 
0.08200 
0.08200 
-0.01600 
-0.01600 
0.06450 
0.06450 
0.06800 
0.06800 
0.04000 
0.04000 
0.07750 
0.07750 
-0.02700 
-0.02700 
0.16750 
0.16750 
0.03550 
0.03550 
-0.00950 
-0.00950 
-0.01750 
-0.01750 
0.06050 
0.06050 
0.03250 
0.03250 
0.06650 
0.06650 
0.08200 
0.08200 
0.06650 
0.06650 
0.00650 
0.00650 
0.09900 
0.09900 
0.04600 
0.04600 
0.03600 
0.03600 
0.01600 
0.01600 
-0.03450 
-0.03450 
0.06000 
0.06000 
-0.00650 
-0.00650 
0.07700 
0.07700 
0.02050 
0.02050 
0.10200 
0.10200 
0.05900 
0.05900 
0.01650 
0.01650 
0.07950 
0.07950 
0.00150 
0.00150 
-0.00550 
-0.00550 
0.08350 
0.08350 
0.11600 
0.11600 
0.05250 
0.05250 
0.07300 
0.07300 
-0.05250 
-0.05250 
-0.06400 
-0.06400 
0.02750 
0.02750 
0.00200 
0.00200 
-0.00550 
-0.00550 
0.05950 
0.05950 
0.07500 
0.07500 
0.01650 
0.01650 
0.01400 
0.01400 
-0.05100 
-0.05100 
-0.01600 
-0.01600 
-0.03800 
-0.03800 
0.05450 
0.05450 
0.03150 
0.03150 
0.07850 
0.07850 
0.01250 
0.01250 
0.06150 
0.06150 
-0.00200 
-0.00200 
0.01000 
0.01000 
0.06850 
0.06850 
-0.00500 
-0.00500 
0.02050 
0.02050 
0.04350 
0.04350 
-0.00300 
-0.00300 
0.04450 
0.04450 
0.09500 
0.09500 
0.02400 
0.02400 
-0.00500 
-0.00500 
0.06800 
0.06800 
0.01850 
0.01850 
0.01550 
0.01550 
0.07150 
0.07150 
0.07900 
0.07900 
0.04950 
0.04950 
0.04900 
0.04900 
0.05850 
0.05850 
SCALARS Umean_Y double 1 
LOOKUP_TABLE default
0.14050 
0.14050 
0.07300 
0.07300 
0.10350 
0.10350 
0.09750 
0.09750 
0.08500 
0.08500 
0.10050 
0.10050 
0.13150 
0.13150 
0.10050 
0.10050 
0.16150 
0.16150 
0.09950 
0.09950 
0.16700 
0.16700 
0.05000 
0.05000 
0.11500 
0.11500 
0.07050 
0.07050 
0.06200 
0.06200 
0.08250 
0.08250 
0.10050 
0.10050 
0.10450 
0.10450 
0.11650 
0.11650 
0.09100 
0.09100 
0.14850 
0.14850 
0.12050 
0.12050 
0.10000 
0.10000 
0.09700 
0.09700 
0.12100 
0.12100 
0.11700 
0.11700 
0.10050 
0.10050 
0.10000 
0.10000 
0.14050 
0.14050 
0.13700 
0.13700 
0.05450 
0.05450 
0.08450 
0.08450 
0.06800 
0.06800 
0.09650 
0.09650 
0.14100 
0.14100 
0.08450 
0.08450 
0.10800 
0.10800 
0.19900 
0.19900 
0.11750 
0.11750 
0.14900 
0.14900 
0.11300 
0.11300 
0.08400 
0.08400 
0.13100 
0.13100 
0.18650 
0.18650 
0.04950 
0.04950 
0.05850 
0.05850 
0.10200 
0.10200 
0.08800 
0.08800 
0.10050 
0.10050 
0.11450 
0.11450 
0.12500 
0.12500 
0.15350 
0.15350 
0.13850 
0.13850 
0.04500 
0.04500 
0.09800 
0.09800 
0.09950 
0.09950 
0.07850 
0.07850 
0.09800 
0.09800 
0.03850 
0.03850 
0.14900 
0.14900 
0.13500 
0.13500 