# vtk DataFile Version 2.1 
Trajects from timestep 1 with color option 
ASCII 
 
DATASET POLYDATA POINTS 1046 float 
-6.940 -2.230 -72.079 
-7.063 -2.232 -72.266 
-5.262 -0.977 -70.776 
-5.326 -0.962 -70.898 
-1.357 3.627 -68.863 
-1.464 3.733 -68.965 
-3.748 -1.627 -73.549 
-3.753 -1.678 -73.710 
0.155 1.018 -71.265 
0.144 1.058 -71.354 
0.646 -5.036 -70.494 
0.687 -4.972 -70.494 
2.358 0.825 -72.176 
2.313 0.758 -72.408 
-9.959 3.409 -71.662 
-9.911 3.431 -71.608 
3.637 8.931 -69.167 
3.651 8.908 -69.340 
-2.674 -12.335 -73.783 
-2.562 -12.257 -73.830 
-0.229 -0.538 -71.057 
-0.334 -0.516 -71.152 
-11.080 10.324 -74.785 
-11.157 10.326 -74.769 
-4.747 -3.186 -72.300 
-4.851 -3.102 -72.374 
4.886 8.878 -68.971 
4.771 8.886 -69.090 
3.416 4.626 -68.199 
3.325 4.619 -68.268 
-6.356 -3.473 -71.701 
-6.492 -3.385 -71.761 
3.068 -5.405 -71.736 
3.119 -5.432 -71.961 
-8.124 9.422 -71.366 
-8.047 9.431 -71.407 
-2.230 2.181 -66.996 
-2.234 2.421 -67.123 
-5.718 7.652 -76.741 
-5.766 7.697 -76.739 
-3.224 -8.897 -72.858 
-3.277 -8.837 -72.934 
-7.263 5.566 -70.654 
-7.280 5.547 -70.750 
-6.227 2.843 -69.074 
-6.184 2.980 -69.313 
-5.863 10.469 -66.617 
-5.854 10.763 -66.701 
-11.815 11.543 -73.782 
-11.826 11.603 -73.738 
-7.763 -0.607 -69.896 
-7.721 -0.681 -69.958 
-7.254 8.392 -74.552 
-7.356 8.354 -74.702 
-9.551 -4.375 -71.129 
-9.668 -4.281 -71.139 
4.813 2.056 -69.810 
4.755 2.026 -69.861 
-5.079 11.963 -67.955 
-5.042 12.017 -68.069 
-12.232 -7.970 -71.123 
-12.272 -7.893 -70.964 
14.454 1.622 -68.738 
14.296 1.777 -68.820 
-9.828 -2.276 -70.955 
-9.955 -2.253 -71.036 
1.685 4.919 -67.386 
1.546 4.968 -67.418 
1.430 11.418 -67.244 
1.486 11.467 -67.367 
-4.945 0.201 -69.791 
-4.977 0.358 -69.964 
5.680 0.767 -66.475 
5.632 0.808 -66.496 
-6.433 -0.885 -70.408 
-6.412 -0.890 -70.513 
-9.966 6.261 -70.656 
-10.018 6.352 -70.761 
-3.880 10.492 -72.880 
-3.794 10.528 -73.057 
-6.928 -3.072 -71.518 
-7.075 -3.051 -71.574 
-2.819 -11.006 -72.258 
-2.926 -10.919 -72.070 
-2.076 -0.574 -72.290 
-2.061 -0.567 -72.530 
4.535 1.048 -69.230 
4.398 1.107 -69.340 
-5.476 -2.823 -63.372 
-5.442 -2.506 -63.430 
-1.351 9.048 -68.512 
-1.267 9.094 -68.603 
4.725 3.563 -66.727 
4.636 3.567 -66.789 
8.795 9.039 -67.876 
8.607 9.137 -68.072 
9.202 -1.840 -65.615 
9.215 -1.745 -65.583 
-0.767 8.698 -73.541 
-0.680 8.789 -73.677 
8.862 12.725 -69.350 
8.872 12.913 -69.498 
6.556 -1.411 -69.393 
6.576 -1.362 -69.538 
7.630 -0.289 -66.166 
7.544 -0.223 -66.171 
2.410 6.696 -69.979 
2.425 6.720 -70.041 
13.053 4.776 -69.641 
12.950 4.872 -69.714 
-9.379 -12.041 -72.978 
-9.344 -11.986 -72.967 
-7.236 -3.624 -74.394 
-7.332 -3.590 -74.493 
3.350 5.142 -63.243 
3.202 5.246 -63.278 
7.654 7.631 -65.993 
7.498 7.653 -66.028 
4.233 -2.146 -73.944 
4.320 -2.232 -74.043 
-2.934 7.724 -67.805 
-2.974 7.789 -68.002 
-7.041 4.359 -72.902 
-6.847 4.368 -72.898 
-2.020 10.728 -74.656 
-1.941 10.769 -74.743 
4.619 -11.324 -70.064 
4.548 -11.499 -70.100 
-8.591 -2.360 -73.985 
-8.652 -2.400 -74.104 
8.353 11.949 -68.731 
8.310 12.124 -68.857 
-1.461 8.528 -67.289 
-1.492 8.565 -67.525 
4.962 9.324 -69.624 
5.041 9.318 -69.811 
-6.772 13.166 -65.336 
-6.837 13.296 -65.315 
4.786 10.128 -66.930 
4.922 10.262 -67.101 
-6.535 -3.412 -65.173 
-6.416 -3.069 -65.291 
-4.508 7.317 -68.117 
-4.506 7.586 -68.264 
1.010 10.971 -67.484 
1.083 11.046 -67.620 
-6.842 11.105 -66.195 
-6.852 11.289 -66.328 
-5.491 -9.631 -71.785 
-5.513 -9.495 -71.778 
1.368 -6.855 -71.179 
1.303 -6.857 -71.213 
6.805 2.491 -72.700 
6.831 2.485 -72.900 
5.135 -0.979 -65.281 
5.095 -0.933 -65.304 
14.810 4.447 -67.144 
14.687 4.490 -67.072 
4.256 -11.750 -70.208 
4.176 -11.921 -70.220 
1.431 -7.634 -62.741 
1.629 -7.428 -62.637 
11.192 7.079 -71.640 
11.143 7.060 -71.735 
-10.317 -7.591 -70.234 
-10.351 -7.441 -70.152 
-3.766 -1.176 -64.165 
-3.811 -0.993 -64.220 
-6.361 6.250 -69.313 
-6.369 6.432 -69.531 
-7.053 -5.267 -65.218 
-6.932 -4.963 -65.195 
-13.720 -2.434 -70.775 
-13.811 -2.587 -70.921 
1.562 3.293 -66.587 
1.494 3.365 -66.697 
2.312 0.673 -66.458 
2.317 0.785 -66.535 
15.984 0.905 -71.544 
15.950 1.052 -71.616 
-0.876 -8.645 -67.200 
-0.675 -8.445 -67.216 
-8.599 7.898 -72.775 
-8.551 7.955 -72.840 
-12.386 2.002 -69.711 
-12.421 1.991 -69.677 
9.313 6.288 -72.180 
9.240 6.328 -72.369 
-7.800 12.396 -69.615 
-7.806 12.316 -69.694 
9.435 8.704 -74.480 
9.306 8.582 -74.705 
-11.917 9.769 -70.192 
-11.968 9.733 -70.182 
-9.081 -1.297 -63.769 
-9.021 -1.039 -63.827 
-8.910 11.475 -63.311 
-8.905 11.637 -63.240 
-13.605 -3.941 -74.600 
-13.784 -3.917 -74.659 
-0.628 -1.651 -62.717 
-0.672 -1.504 -62.828 
6.379 13.159 -66.338 
6.397 13.376 -66.571 
12.888 -3.168 -67.037 
12.913 -3.089 -67.158 
-6.123 9.171 -69.023 
-6.131 9.362 -69.164 
6.010 -2.748 -65.192 
6.024 -2.617 -65.309 
-7.455 6.753 -66.534 
-7.360 6.906 -66.557 
7.556 8.818 -63.854 
7.581 8.935 -64.051 
-2.064 3.294 -73.295 
-2.121 3.393 -73.531 
6.876 -6.394 -66.398 
6.938 -6.279 -66.405 
0.803 -1.947 -64.768 
0.854 -1.792 -64.828 
-4.234 -6.152 -67.793 
-4.071 -5.934 -67.798 
1.610 -2.785 -73.829 
1.618 -2.768 -73.999 
7.093 4.277 -69.226 
6.973 4.250 -69.285 
11.152 7.305 -66.688 
10.950 7.513 -66.797 
8.531 -3.760 -73.226 
8.621 -3.887 -73.263 
-15.524 -3.590 -73.342 
-15.548 -3.561 -73.308 
6.579 -6.503 -69.170 
6.596 -6.544 -69.164 
-11.295 -1.343 -73.662 
-11.323 -1.374 -73.766 
0.890 -0.586 -65.617 
0.954 -0.495 -65.682 
-1.182 5.380 -62.298 
-1.226 5.582 -62.306 
9.479 1.598 -69.398 
9.347 1.659 -69.507 
1.852 -0.641 -72.789 
1.841 -0.614 -73.117 
-9.870 10.148 -65.173 
-9.914 10.094 -65.117 
-9.062 3.221 -65.434 
-9.091 3.415 -65.525 
6.126 10.929 -68.720 
6.097 11.045 -68.959 
-4.063 -4.901 -65.217 
-3.956 -4.660 -65.281 
-8.709 5.181 -65.833 
-8.637 5.394 -65.861 
3.823 9.089 -66.197 
3.930 9.200 -66.263 
10.041 -6.785 -66.413 
10.148 -6.590 -66.437 
-5.301 10.781 -73.595 
-5.350 10.791 -73.745 
-10.157 2.956 -65.565 
-10.169 3.081 -65.645 
4.697 10.880 -64.732 
4.822 11.025 -64.893 
-2.049 -2.254 -69.464 
-2.033 -2.192 -69.669 
12.271 11.010 -72.922 
12.296 10.966 -73.085 
8.572 -9.560 -68.109 
8.644 -9.384 -68.079 
-11.242 1.084 -62.412 
-11.244 1.320 -62.407 
7.452 -12.477 -69.389 
7.486 -12.310 -69.351 
-2.124 -3.862 -75.028 
-2.185 -3.791 -75.072 
-14.276 -9.186 -71.685 
-14.386 -9.069 -71.491 
-2.653 8.929 -65.743 
-2.570 9.042 -65.915 
-4.473 -0.074 -61.865 
-4.402 0.128 -62.016 
-5.921 6.760 -60.575 
-5.871 7.072 -60.772 
9.613 5.265 -67.571 
9.324 5.323 -67.716 
-9.604 3.497 -65.790 
-9.646 3.634 -65.886 
-9.585 0.263 -64.911 
-9.545 0.390 -64.966 
13.845 5.817 -69.785 
13.720 5.967 -69.817 
-9.165 8.735 -64.090 
-9.162 8.924 -64.028 
3.843 -1.631 -62.955 
3.860 -1.496 -63.070 
-7.784 -9.926 -70.992 
-7.711 -9.815 -70.876 
4.758 -2.760 -68.419 
4.765 -2.720 -68.575 
9.535 -1.196 -74.481 
9.645 -1.341 -74.503 
13.956 -2.164 -66.571 
13.948 -2.008 -66.723 
-14.748 -10.997 -73.399 
-14.743 -10.865 -73.183 
13.384 0.693 -68.039 
13.173 0.723 -68.172 
-8.232 -8.050 -71.305 
-8.164 -7.914 -71.247 
-4.313 8.554 -63.701 
-4.299 8.719 -63.864 
4.703 -3.975 -69.672 
4.722 -3.968 -69.753 
9.914 -6.857 -69.150 
9.967 -6.837 -69.154 
5.850 -9.192 -67.498 
5.870 -9.072 -67.470 
-2.081 -1.335 -73.898 
-2.112 -1.311 -74.023 
-8.587 -5.103 -65.764 
-8.512 -4.881 -65.695 
-12.472 -0.949 -69.211 
-12.522 -1.032 -69.344 
8.749 -1.373 -70.897 
8.663 -1.329 -70.957 
-9.098 -6.865 -70.069 
-8.988 -6.708 -70.066 
-1.540 -6.420 -63.737 
-1.373 -6.177 -63.978 
-2.131 2.685 -60.209 
-2.116 2.942 -60.240 
4.947 4.318 -64.635 
4.847 4.476 -64.687 
2.538 -12.528 -65.814 
2.754 -12.505 -65.822 
9.655 -12.248 -67.812 
9.729 -12.084 -67.879 
13.217 9.785 -72.178 
13.086 9.901 -72.231 
-8.790 -7.122 -68.709 
-8.730 -6.896 -68.651 
-0.758 -10.732 -63.700 
-0.510 -10.469 -63.799 
15.742 -6.608 -73.642 
15.750 -6.441 -73.706 
3.781 -11.391 -69.417 
3.711 -11.443 -69.475 
5.469 7.336 -62.531 
5.527 7.558 -62.557 
8.712 -12.118 -69.853 
8.789 -11.887 -69.939 
-10.961 -1.376 -68.621 
-11.006 -1.300 -68.692 
-2.334 8.234 -78.095 
-2.330 8.238 -78.148 
-6.058 3.820 -70.981 
-6.030 3.816 -71.093 
-12.182 0.655 -63.553 
-12.210 0.844 -63.555 
13.675 11.603 -70.983 
13.511 11.697 -71.236 
-0.578 1.998 -62.818 
-0.539 2.156 -62.926 
2.066 -6.997 -70.867 
2.034 -7.010 -70.904 
-5.608 6.623 -73.920 
-5.629 6.633 -74.007 
-13.284 -3.274 -69.654 
-13.234 -3.401 -69.799 
-2.430 12.689 -62.111 
-2.497 12.899 -62.198 
-7.291 5.877 -62.631 
-7.284 6.168 -62.640 
-10.064 1.604 -70.369 
-10.045 1.576 -70.598 
16.781 6.933 -67.322 
16.768 6.939 -67.400 
-11.050 -0.776 -66.332 
-11.100 -0.685 -66.262 
6.395 -5.330 -66.919 
6.433 -5.159 -66.968 
-11.786 7.849 -69.742 
-11.818 7.810 -69.672 
4.390 10.141 -65.249 
4.534 10.422 -65.516 
-8.784 -0.166 -66.422 
-8.754 -0.055 -66.455 
11.763 -7.632 -70.046 
11.816 -7.530 -70.115 
4.803 -10.890 -70.649 
4.767 -11.006 -70.710 
-11.548 -4.564 -74.843 
-11.582 -4.662 -75.038 
3.652 3.100 -62.249 
3.618 3.335 -62.314 
-13.711 -9.285 -69.017 
-13.714 -9.263 -68.904 
8.570 1.002 -64.630 
8.387 1.011 -64.709 
6.748 -5.072 -68.939 
6.722 -5.127 -68.918 
9.066 -10.601 -68.594 
9.137 -10.375 -68.558 
-0.293 12.336 -66.218 
-0.214 12.371 -66.248 
10.087 -2.443 -65.252 
10.112 -2.304 -65.215 
-9.660 6.749 -71.921 
-9.633 6.874 -71.928 
14.261 -8.637 -68.835 
14.253 -8.547 -68.928 
9.365 -7.488 -73.389 
9.352 -7.506 -73.293 
10.904 7.604 -63.859 
10.867 7.696 -63.885 
5.517 -6.295 -68.131 
5.557 -6.198 -68.205 
16.239 8.298 -68.306 
16.070 8.619 -68.194 
-11.103 -1.577 -62.501 
-11.098 -1.320 -62.559 
-12.726 7.138 -71.387 
-12.803 7.065 -71.307 
0.739 6.243 -73.942 
0.757 6.278 -74.041 
4.006 -2.050 -71.448 
4.081 -2.055 -71.653 
11.632 7.072 -69.439 
11.480 7.197 -69.534 
6.354 2.500 -70.090 
6.231 2.531 -70.283 
-0.947 9.834 -65.441 
-0.933 9.881 -65.674 
-6.356 11.220 -74.140 
-6.347 11.232 -74.249 
2.465 4.854 -76.702 
2.520 4.918 -76.864 
-1.689 -11.799 -68.884 
-1.640 -11.598 -68.684 
7.615 -0.878 -63.984 
[...]
POINT_DATA 1046 
SCALARS Umean double 1 
LOOKUP_TABLE default
0.11192 
0.11192 
0.06929 
0.06929 
0.09095 
0.09095 
0.08448 
0.08448 
0.04910 
0.04910 
0.03800 
0.03800 
0.12282 
0.12282 
0.03776 
0.03776 
0.08754 
0.08754 
0.07218 
0.07218 
0.07165 
0.07165 
0.03934 
0.03934 
0.07640 
0.07640 
0.08284 
0.08284 
0.05721 
0.05721 
0.08637 
0.08637 
0.11614 
0.11614 
0.04385 
0.04385 
0.13578 
0.13578 
0.03291 
0.03291 
0.05519 
0.05519 
0.04966 
0.04966 
0.13941 
0.13941 
0.15295 
0.15295 
0.03761 
0.03761 
0.05264 
0.05264 
0.09267 
0.09267 
0.07521 
0.07521 
0.04143 
0.04143 
0.06573 
0.06573 
0.09057 
0.09057 
0.11802 
0.11802 
0.07619 
0.07619 
0.07541 
0.07541 
0.07188 
0.07188 
0.11790 
0.11790 
0.03326 
0.03326 
0.05360 
0.05360 
0.07418 
0.07418 
0.10003 
0.10003 
0.07935 
0.07935 
0.11658 
0.11658 
0.12029 
0.12029 
0.09267 
0.09267 
0.16203 
0.16203 
0.06605 
0.06605 
0.05427 
0.05427 
0.14436 
0.14436 
0.05054 
0.05054 
0.09266 
0.09266 
0.11974 
0.11974 
0.07718 
0.07718 
0.05426 
0.05426 
0.03408 
0.03408 
0.07930 
0.07930 
0.03306 
0.03306 
0.07102 
0.07102 
0.09212 
0.09212 
0.08069 
0.08069 
0.07869 
0.07869 
0.10563 
0.10563 
0.09712 
0.09712 
0.06223 
0.06223 
0.09613 
0.09613 
0.06979 
0.06979 
0.10994 
0.10994 
0.12044 
0.12044 
0.10155 
0.10155 
0.07343 
0.07343 
0.12815 
0.12815 
0.19088 
0.19088 
0.15328 
0.15328 
0.08581 
0.08581 
0.11363 
0.11363 
0.06897 
0.06897 
0.03669 
0.03669 
0.10089 
0.10089 
0.03258 
0.03258 
0.07443 
0.07443 
0.09458 
0.09458 
0.15203 
0.15203 
0.05428 
0.05428 
0.08715 
0.08715 
0.09816 
0.09816 
0.14205 
0.14205 
0.16400 
0.16400 
0.11512 
0.11512 
0.07401 
0.07401 
0.06800 
0.06800 
0.08359 
0.08359 
0.14200 
0.14200 
0.04944 
0.04944 
0.02501 
0.02501 
0.10326 
0.10326 
0.05630 
0.05630 
0.14331 
0.14331 
0.03161 
0.03161 
0.13558 
0.13558 
0.08847 
0.08847 
0.09500 
0.09500 
0.09469 
0.09469 
0.15945 
0.15945 
0.07333 
0.07333 
0.11877 
0.11877 
0.08810 
0.08810 
0.09078 
0.09078 
0.11524 
0.11524 
0.13110 
0.13110 
0.06542 
0.06542 
0.08693 
0.08693 
0.13612 
0.13612 
0.08552 
0.08552 
0.06821 
0.06821 
0.15488 
0.15488 
0.08000 
0.08000 
0.02536 
0.02536 
0.02239 
0.02239 
0.05604 
0.05604 
0.06442 
0.06442 
0.10345 
0.10345 
0.09087 
0.09087 
0.16465 
0.16465 
0.04469 
0.04469 
0.10812 
0.10812 
0.13362 
0.13362 
0.13567 
0.13567 
0.11329 
0.11329 
0.08385 
0.08385 
0.11186 
0.11186 
0.07906 
0.07906 
0.07445 
0.07445 
0.12507 
0.12507 
0.10738 
0.10738 
0.08534 
0.08534 
0.09625 
0.09625 
0.11803 
0.11803 
0.08731 
0.08731 
0.05172 
0.05172 
0.12592 
0.12592 
0.11095 
0.11095 
0.13100 
0.13100 
0.18618 
0.18618 
0.16425 
0.16425 
0.08624 
0.08624 
0.07203 
0.07203 
0.09893 
0.09893 
0.09947 
0.09947 
0.08908 
0.08908 
0.08818 
0.08818 
0.08060 
0.08060 
0.09166 
0.09166 
0.10898 
0.10898 
0.12659 
0.12659 
0.12561 
0.12561 
0.08137 
0.08137 
0.11618 
0.11618 
0.04175 
0.04175 
0.02839 
0.02839 
0.06242 
0.06242 
0.06550 
0.06550 
0.12214 
0.12214 
0.08228 
0.08228 
0.05686 
0.05686 
0.09586 
0.09586 
0.19041 
0.19041 
0.12965 
0.12965 
0.09704 
0.09704 
0.10868 
0.10868 
0.09600 
0.09600 
0.09141 
0.09141 
0.12046 
0.12046 
0.18740 
0.18740 
0.08951 
0.08951 
0.05236 
0.05236 
0.11546 
0.11546 
0.12912 
0.12912 
0.05666 
0.05666 
0.02665 
0.02665 
0.05776 
0.05776 
0.09554 
0.09554 
0.15791 
0.15791 
0.09766 
0.09766 
0.02531 
0.02531 
0.04503 
0.04503 
0.09957 
0.09957 
0.11849 
0.11849 
0.14561 
0.14561 
0.11574 
0.11574 
0.03965 
0.03965 
0.06261 
0.06261 
0.09095 
0.09095 
0.04314 
0.04314 
0.20675 
0.20675 
0.05981 
0.05981 
0.06703 
0.06703 
0.06796 
0.06796 
0.11044 
0.11044 
0.12309 
0.12309 
0.05758 
0.05758 
0.09976 
0.09976 
0.03218 
0.03218 
0.11981 
0.11981 
0.04573 
0.04573 
0.07300 
0.07300 
0.06404 
0.06404 
0.06483 
0.06483 
0.04927 
0.04927 
0.05126 
0.05126 
0.06420 
0.06420 
0.18983 
0.18983 
0.13176 
0.13176 
0.06644 
0.06644 
0.05327 
0.05327 
0.10917 
0.10917 
0.10926 
0.10926 
0.11548 
0.11548 
0.11905 
0.11905 
0.05501 
0.05501 
0.09133 
0.09133 
0.14388 
0.14388 
0.08935 
0.08935 
0.19497 
0.19497 
0.10436 
0.10436 
0.09477 
0.09477 
0.14335 
0.14335 
0.12925 
0.12925 
0.15831 
0.15831 
0.02494 
0.02494 
0.09164 
0.09164 
0.13756 
0.13756 
0.08864 
0.08864 
0.09164 
0.09164 
0.09234 
0.09234 
0.11566 
0.11566 
0.08312 
0.08312 
0.11172 
0.11172 
0.08006 
0.08006 
0.04115 
0.04115 
0.13989 
0.13989 
0.15440 
0.15440 
0.10896 
0.10896 
0.05900 
0.05900 
0.05315 
0.05315 
0.16228 
0.16228 
0.08200 
0.08200 
0.10346 
0.10346 
0.04217 
0.04217 
0.06141 
0.06141 
0.08601 
0.08601 
0.04366 
0.04366 
0.12751 
0.12751 
0.10012 
0.10012 
0.07234 
0.07234 
0.11824 
0.11824 
0.15384 
0.15384 
0.03167 
0.03167 
0.03349 
0.03349 
0.15927 
0.15927 
0.08066 
0.08066 
0.07675 
0.07675 
0.11538 
0.11538 
0.08466 
0.08466 
0.17277 
0.17277 
0.09098 
0.09098 
0.07023 
0.07023 
0.15249 
0.15249 
0.14006 
0.14006 
0.14481 
0.14481 
0.14870 
0.14870 
0.06198 
0.06198 
0.06294 
0.06294 
0.01739 
0.01739 
0.10279 
0.10279 
0.11723 
0.11723 
0.08043 
0.08043 
0.08293 
0.08293 
0.06022 
0.06022 
0.17386 
0.17386 
0.12956 
0.12956 
0.16481 
0.16481 
0.05208 
0.05208 
0.12634 
0.12634 
0.11704 
0.11704 
0.15838 
0.15838 
0.05481 
0.05481 
0.08265 
0.08265 
0.07856 
0.07856 
0.04821 
0.04821 
0.03598 
0.03598 
0.03824 
0.03824 
0.04033 
0.04033 
0.08106 
0.08106 
0.11662 
0.11662 
0.15986 
0.15986 
0.06075 
0.06075 
0.02774 
0.02774 
0.10979 
0.10979 
0.08902 
0.08902 
0.07450 
0.07450 
0.09523 
0.09523 
0.11580 
0.11580 
0.06830 
0.06830 
0.27506 
0.27506 
0.03156 
0.03156 
0.06480 
0.06480 
0.05823 
0.05823 
0.15141 
0.15141 
0.08212 
0.08212 
0.08506 
0.08506 
0.02494 
0.02494 
0.08868 
0.08868 
0.10565 
0.10565 
0.08228 
0.08228 
0.10902 
0.10902 
0.11980 
0.11980 
0.11318 
0.11318 
0.05725 
0.05725 
0.12322 
0.12322 
0.14853 
0.14853 
0.10024 
0.10024 
0.14745 
0.14745 
0.04598 
0.04598 
0.13334 
0.13334 
0.21842 
0.21842 
0.04009 
0.04009 
0.06019 
0.06019 
0.15884 
0.15884 
0.09682 
0.09682 
0.13182 
0.13182 
0.02889 
0.02889 
0.15723 
0.15723 
0.09459 
0.09459 
0.09571 
0.09571 
0.03109 
0.03109 
0.10318 
0.10318 
0.09496 
0.09496 
0.07869 
0.07869 
0.06107 
0.06107 
0.08401 
0.08401 
0.07707 
0.07707 
0.11009 
0.11009 
0.09256 
0.09256 
0.08923 
0.08923 
0.10978 
0.10978 
0.13434 
0.13434 
0.09791 
0.09791 
0.05013 
0.05013 
0.07379 
0.07379 
0.04752 
0.04752 
0.08549 
0.08549 
0.06555 
0.06555 
0.09995 
0.09995 
0.03652 
0.03652 
0.03296 
0.03296 
0.05418 
0.05418 
0.09386 
0.09386 
0.08791 
0.08791 
0.07901 
0.07901 
0.07897 
0.07897 
0.18824 
0.18824 
0.07151 
0.07151 
0.08820 
0.08820 
0.18018 
0.18018 
0.11124 
0.11124 
0.19989 
0.19989 
0.08913 
0.08913 
0.11926 
0.11926 
0.09335 
0.09335 
0.03845 
0.03845 
0.13313 
0.13313 
0.17960 
0.17960 
0.10734 
0.10734 
0.13674 
0.13674 
0.16054 
0.16054 
0.13097 
0.13097 
0.11262 
0.11262 
0.05269 
0.05269 
0.06451 
0.06451 
0.05151 
0.05151 
0.09825 
0.09825 
0.07844 
0.07844 
0.04517 
0.04517 
0.10339 
0.10339 
0.04829 
0.04829 
0.13144 
0.13144 
0.14398 
0.14398 
0.09557 
0.09557 
0.10171 
0.10171 
0.06886 
0.06886 
0.04190 
0.04190 
0.04061 
0.04061 
0.05104 
0.05104 
0.13025 
0.13025 
0.06525 
0.06525 
0.05125 
0.05125 
0.02847 
0.02847 
0.06920 
0.06920 
0.07422 
0.07422 
0.06436 
0.06436 
0.05572 
0.05572 
0.10171 
0.10171 
0.11018 
0.11018 
0.11078 
0.11078 
0.08073 
0.08073 
0.05659 
0.05659 
0.12759 
0.12759 
0.13636 
0.13636 
0.09565 
0.09565 
0.04243 
0.04243 
0.12434 
0.12434 
0.04977 
0.04977 
0.19618 
0.19618 
0.18044 
0.18044 
0.05925 
0.05925 
0.09484 
0.09484 
0.12311 
0.12311 
0.11720 
0.11720 
0.07655 
0.07655 
0.09715 
0.09715 
0.11581 
0.11581 
0.17614 
0.17614 
0.09260 
0.09260 
0.14182 
0.14182 
0.05696 
0.05696 
0.04828 
0.04828 
0.07600 
0.07600 
0.12768 
0.12768 
0.14766 
0.14766 
0.03813 
0.03813 
0.06661 
0.06661 
0.11005 
0.11005 
0.19350 
0.19350 
0.13158 
0.13158 
0.08707 
0.08707 
0.14002 
0.14002 
0.05763 
0.05763 
0.14705 
0.14705 
0.19928 
0.19928 
0.07172 
0.07172 
0.11634 
0.11634 
0.04393 
0.04393 
0.09138 
0.09138 
0.09399 
0.09399 
0.04890 
0.04890 
0.14913 
0.14913 
0.06271 
0.06271 
0.08517 
0.08517 
0.10041 
0.10041 
0.07579 
0.07579 
0.15717 
0.15717 
0.09089 
0.09089 
0.11543 
0.11543 
0.07683 
0.07683 
0.12636 
0.12636 
0.03447 
0.03447 
0.15424 
0.15424 
0.06850 
0.06850 
0.04536 
0.04536 
0.14124 
0.14124 
0.04656 
0.04656 
0.14975 
0.14975 
0.04276 
0.04276 
0.11556 
0.11556 
0.07519 
0.07519 
0.12814 
0.12814 
0.09951 
0.09951 
0.07287 
0.07287 
0.11359 
0.11359 
0.07309 
0.07309 
0.21426 
0.21426 
0.15013 
0.15013 
0.06768 
0.06768 
0.15235 
0.15235 
0.05774 
0.05774 
0.05712 
0.05712 
0.09163 
0.09163 
0.16003 
0.16003 
0.10325 
0.10325 
0.11909 
0.11909 
0.11856 
0.11856 
0.12543 
0.12543 
0.07622 
0.07622 
0.07184 
0.07184 
0.09405 
0.09405 
0.07822 
0.07822 
0.04358 
0.04358 
0.05339 
0.05339 
0.07564 
0.07564 
0.13850 
0.13850 
0.21652 
0.21652 
0.18283 
0.18283 
0.06030 
0.06030 
0.03523 
0.03523 
0.04672 
0.04672 
0.03157 
0.03157 
0.13189 
0.13189 
0.15167 
0.15167 
0.06890 
0.06890 
0.05176 
0.05176 
0.02142 
0.02142 
0.10417 
0.10417 
0.15890 
0.15890 
0.11645 
0.11645 
0.02528 
0.02528 
0.12686 
0.12686 
0.20324 
0.20324 
0.06777 
0.06777 
0.18045 
0.18045 
0.06588 
0.06588 
0.08809 
0.08809 
0.08063 
0.08063 
0.09762 
0.09762 
0.15522 
0.15522 
0.05220 
0.05220 
0.11437 
0.11437 
0.01444 
0.01444 
0.12006 
0.12006 
0.08752 
0.08752 
0.08156 
0.08156 
0.08164 
0.08164 
0.09024 
0.09024 
0.05948 
0.05948 
0.13687 
0.13687 
SCALARS Umean_X double 1 
LOOKUP_TABLE default
-0.06150 
-0.06150 
-0.03200 
-0.03200 
-0.05350 
-0.05350 
-0.00250 
-0.00250 
-0.00550 
-0.00550 
0.02050 
0.02050 
-0.02250 
-0.02250 
0.02400 
0.02400 
0.00700 
0.00700 
0.05600 
0.05600 
-0.05250 
-0.05250 
-0.03850 
-0.03850 
-0.05200 
-0.05200 
-0.05750 
-0.05750 
-0.04550 
-0.04550 
-0.06800 
-0.06800 
0.02550 
0.02550 
0.03850 
0.03850 
-0.00200 
-0.00200 
-0.02400 
-0.02400 
-0.02650 
-0.02650 
-0.00850 
-0.00850 
0.02150 
0.02150 
0.00450 
0.00450 
-0.00550 
-0.00550 
0.02100 
0.02100 
-0.05100 
-0.05100 
-0.05850 
-0.05850 
-0.02900 
-0.02900 
0.01850 
0.01850 
-0.02000 
-0.02000 
-0.07900 
-0.07900 
-0.06350 
-0.06350 
-0.06950 
-0.06950 
0.02800 
0.02800 
-0.01600 
-0.01600 
-0.02400 
-0.02400 
0.01050 
0.01050 
-0.02600 
-0.02600 
0.04300 
0.04300 
-0.07350 
-0.07350 
-0.05350 
-0.05350 
0.00750 
0.00750 
-0.06850 
-0.06850 
0.01700 
0.01700 
0.04200 
0.04200 
-0.04450 
-0.04450 
-0.09400 
-0.09400 
0.00650 
0.00650 
0.04350 
0.04350 
0.00500 
0.00500 
0.01000 
0.01000 
-0.04300 
-0.04300 
0.00750 
0.00750 
-0.05150 
-0.05150 
0.01750 
0.01750 
-0.04800 
-0.04800 
-0.07400 
-0.07400 
-0.07800 
-0.07800 
0.04350 
0.04350 
-0.02000 
-0.02000 
0.09700 
0.09700 
0.03950 
0.03950 
-0.03550 
-0.03550 
-0.03050 
-0.03050 
-0.02150 
-0.02150 
-0.01550 
-0.01550 
0.03950 
0.03950 
-0.03250 
-0.03250 
0.06800 
0.06800 
0.05950 
0.05950 
0.00100 
0.00100 
0.03650 
0.03650 
-0.00500 
-0.00500 
-0.01100 
-0.01100 
-0.03250 
-0.03250 
0.01300 
0.01300 
-0.02000 
-0.02000 
-0.06150 
-0.06150 
-0.04000 
-0.04000 
0.09900 
0.09900 
-0.02450 
-0.02450 
-0.01700 
-0.01700 
-0.02250 
-0.02250 
-0.00400 
-0.00400 
0.06050 
0.06050 
-0.04550 
-0.04550 
-0.03400 
-0.03400 
0.00250 
0.00250 
-0.01700 
-0.01700 
0.10050 
0.10050 
0.02400 
0.02400 
-0.01750 
-0.01750 
-0.03650 
-0.03650 
-0.00300 
-0.00300 
-0.06450 
-0.06450 
-0.02550 
-0.02550 
0.03000 
0.03000 
0.00250 
0.00250 
-0.08950 
-0.08950 
-0.02200 
-0.02200 
0.00900 
0.00900 
0.01250 
0.01250 
-0.00400 
-0.00400 
0.00700 
0.00700 
0.04750 
0.04750 
0.01250 
0.01250 
-0.02850 
-0.02850 
0.03100 
0.03100 
0.02550 
0.02550 
0.08150 
0.08150 
0.00400 
0.00400 
-0.06000 
-0.06000 
-0.10100 
-0.10100 
0.04500 
0.04500 
-0.01200 
-0.01200 
0.00850 
0.00850 
-0.01400 
-0.01400 
0.03200 
0.03200 
-0.02200 
-0.02200 
-0.06600 
-0.06600 
-0.00550 
-0.00550 
-0.02200 
-0.02200 
-0.01450 
-0.01450 
-0.01450 
-0.01450 
0.05350 
0.05350 
0.03600 
0.03600 
0.05350 
0.05350 
0.05350 
0.05350 
-0.02450 
-0.02450 
-0.00600 
-0.00600 
0.06250 
0.06250 
0.00800 
0.00800 
0.01250 
0.01250 
0.03600 
0.03600 
-0.00100 
-0.00100 
0.01700 
0.01700 
-0.03050 
-0.03050 
-0.05500 
-0.05500 
0.04150 
0.04150 
0.03550 
0.03550 
0.02500 
0.02500 
-0.14450 
-0.14450 
-0.02100 
-0.02100 
0.02000 
0.02000 
-0.06250 
-0.06250 
0.00150 
0.00150 
0.00850 
0.00850 
0.03650 
0.03650 
0.00350 
0.00350 
0.05500 
0.05500 
-0.00400 
-0.00400 
0.00250 
0.00250 
-0.10550 
-0.10550 
0.03400 
0.03400 
0.00700 
0.00700 
0.00950 
0.00950 
0.02650 
0.02650 
0.01000 
0.01000 
-0.01550 
-0.01550 
0.03750 
0.03750 
-0.02500 
-0.02500 
-0.04300 
-0.04300 
0.05500 
0.05500 
0.08350 
0.08350 
0.00750 
0.00750 
-0.05000 
-0.05000 
0.10800 
0.10800 
0.03700 
0.03700 
-0.06550 
-0.06550 
0.03000 
0.03000 
0.12400 
0.12400 
0.00400 
0.00400 
-0.03500 
-0.03500 
0.02900 
0.02900 
0.03850 
0.03850 
-0.02250 
-0.02250 
0.00200 
0.00200 
0.01400 
0.01400 
-0.01400 
-0.01400 
-0.08200 
-0.08200 
0.01950 
0.01950 
-0.01600 
-0.01600 
-0.01050 
-0.01050 
0.02500 
0.02500 
-0.03350 
-0.03350 
0.00350 
0.00350 
0.00950 
0.00950 
-0.00650 
-0.00650 
-0.02500 
-0.02500 
0.01900 
0.01900 
-0.01600 
-0.01600 
0.07200 
0.07200 
0.01500 
0.01500 
0.02650 
0.02650 
-0.01800 
-0.01800 
-0.01700 
-0.01700 
-0.01700 
-0.01700 
-0.00150 
-0.00150 
-0.09150 
-0.09150 
-0.01300 
-0.01300 
0.03550 
0.03550 
0.03950 
0.03950 
0.01250 
0.01250 
0.01350 
0.01350 
-0.00400 
-0.00400 
-0.00650 
-0.00650 
-0.01850 
-0.01850 
0.02000 
0.02000 
-0.08450 
-0.08450 
0.00250 
0.00250 
-0.03850 
-0.03850 
0.00900 
0.00900 
0.03750 
0.03750 
-0.07600 
-0.07600 
-0.06150 
-0.06150 
0.00700 
0.00700 
0.00450 
0.00450 
0.02750 
0.02750 
0.02450 
0.02450 
0.01100 
0.01100 
-0.07150 
-0.07150 
0.04500 
0.04500 
0.08450 
0.08450 
0.06450 
0.06450 
-0.05000 
-0.05000 
0.01800 
0.01800 
0.00900 
0.00900 
-0.06500 
-0.06500 
-0.10350 
-0.10350 
-0.05400 
-0.05400 
0.03850 
0.03850 
0.03800 
0.03800 
-0.09600 
-0.09600 
0.01050 
0.01050 
-0.04900 
-0.04900 
0.02700 
0.02700 
0.03300 
0.03300 
0.02600 
0.02600 
-0.04550 
-0.04550 
0.03600 
0.03600 
-0.03600 
-0.03600 
-0.00250 
-0.00250 
-0.08200 
-0.08200 
-0.04350 
-0.04350 
0.06400 
0.06400 
0.02600 
0.02600 
-0.05050 
-0.05050 
-0.00800 
-0.00800 
-0.04000 
-0.04000 
0.01900 
0.01900 
0.05450 
0.05450 
-0.02950 
-0.02950 
-0.01300 
-0.01300 
0.02350 
0.02350 
0.01100 
0.01100 
0.00550 
0.00550 
0.08450 
0.08450 
-0.04750 
-0.04750 
-0.01100 
-0.01100 
0.05150 
0.05150 
0.04050 
0.04050 
-0.11300 
-0.11300 
-0.01800 
-0.01800 
-0.04250 
-0.04250 
-0.06250 
-0.06250 
0.07450 
0.07450 
-0.00150 
-0.00150 
0.04000 
0.04000 
-0.02400 
-0.02400 
0.05050 
0.05050 
0.01300 
0.01300 
-0.02900 
-0.02900 
-0.04900 
-0.04900 
-0.04150 
-0.04150 
-0.03000 
-0.03000 
0.00250 
0.00250 
-0.00500 
-0.00500 
0.06250 
0.06250 
0.07900 
0.07900 
-0.04400 
-0.04400 
-0.04850 
-0.04850 
0.10500 
0.10500 
0.10850 
0.10850 
-0.02800 
-0.02800 
0.00500 
0.00500 
-0.05950 
-0.05950 
-0.00800 
-0.00800 
-0.00450 
-0.00450 
0.00500 
0.00500 
0.00800 
0.00800 
-0.03000 
-0.03000 
0.06950 
0.06950 
0.12150 
0.12150 
-0.00650 
-0.00650 
0.00850 
0.00850 
0.04650 
0.04650 
-0.07150 
-0.07150 
0.03750 
0.03750 
0.00200 
0.00200 
-0.04450 
-0.04450 
0.01200 
0.01200 
0.00450 
0.00450 
0.02000 
0.02000 
0.02750 
0.02750 
0.05100 
0.05100 
-0.01900 
-0.01900 
0.05800 
0.05800 
0.06400 
0.06400 
0.01050 
0.01050 
-0.03800 
-0.03800 
0.00900 
0.00900 
0.02550 
0.02550 
-0.01000 
-0.01000 
0.04000 
0.04000 
0.00600 
0.00600 
-0.02900 
-0.02900 
-0.01950 
-0.01950 
0.02600 
0.02600 
0.00600 
0.00600 
-0.12150 
-0.12150 
0.02450 
0.02450 
-0.06300 
-0.06300 
0.06350 
0.06350 
0.03250 
0.03250 
0.03300 
0.03300 
-0.03450 
-0.03450 
-0.03900 
-0.03900 
0.06600 
0.06600 
-0.01800 
-0.01800 
0.07500 
0.07500 
0.04550 
0.04550 
-0.06150 
-0.06150 
-0.02150 
-0.02150 
0.06850 
0.06850 
0.04950 
0.04950 
0.06600 
0.06600 
-0.04700 
-0.04700 
-0.05350 
-0.05350 
-0.04300 
-0.04300 
-0.00250 
-0.00250 
-0.03100 
-0.03100 
-0.04050 
-0.04050 
0.02400 
0.02400 
-0.01350 
-0.01350 
0.03150 
0.03150 
0.00750 
0.00750 
0.05400 
0.05400 
0.02450 
0.02450 
-0.08050 
-0.08050 
-0.01150 
-0.01150 
0.08700 
0.08700 
0.00300 
0.00300 
-0.02650 
-0.02650 
0.05400 
0.05400 
0.05550 
0.05550 
0.00800 
0.00800 
0.02600 
0.02600 
-0.00350 
-0.00350 
-0.03550 
-0.03550 
0.00700 
0.00700 
0.01050 
0.01050 
0.01900 
0.01900 
0.07950 
0.07950 
0.08150 
0.08150 
0.06150 
0.06150 
0.07650 
0.07650 
0.03650 
0.03650 
0.01650 
0.01650 
-0.04150 
-0.04150 
0.11550 
0.11550 
-0.00550 
-0.00550 
0.01550 
0.01550 
-0.15300 
-0.15300 
0.05800 
0.05800 
-0.07250 
-0.07250 
0.00850 
0.00850 
0.01450 
0.01450 
-0.01100 
-0.01100 
-0.05650 
-0.05650 
0.06350 
0.06350 
-0.02950 
-0.02950 
-0.04650 
-0.04650 
-0.03300 
-0.03300 
0.06250 
0.06250 
0.04950 
0.04950 
-0.02300 
-0.02300 
0.04600 
0.04600 
-0.01100 
-0.01100 
-0.00900 
-0.00900 
0.00600 
0.00600 
-0.00050 
-0.00050 
0.10200 
0.10200 
0.03650 
0.03650 
0.03450 
0.03450 
0.02650 
0.02650 
-0.00350 
-0.00350 
0.01850 
0.01850 
0.04950 
0.04950 
0.04650 
0.04650 
-0.06450 
-0.06450 
0.03950 
0.03950 
0.04300 
0.04300 
0.03250 
0.03250 
0.01900 
0.01900 
-0.08500 
-0.08500 
-0.02050 
-0.02050 
0.07350 
0.07350 
-0.01600 
-0.01600 
-0.11850 
-0.11850 
-0.03100 
-0.03100 
0.08100 
0.08100 
0.10450 
0.10450 
0.02650 
0.02650 
-0.00800 
-0.00800 
0.02050 
0.02050 
-0.01450 
-0.01450 
-0.01450 
-0.01450 
-0.05650 
-0.05650 
0.07100 
0.07100 
0.04550 
0.04550 
-0.02200 
-0.02200 
0.08750 
0.08750 
0.05500 
0.05500 
0.02900 
0.02900 
0.00800 
0.00800 
-0.02050 
-0.02050 
0.07050 
0.07050 
-0.00600 
-0.00600 
0.05150 
0.05150 
0.01250 
0.01250 
-0.05150 
-0.05150 
0.04150 
0.04150 
0.00750 
0.00750 
-0.07200 
-0.07200 
0.02950 
0.02950 
0.10250 
0.10250 
0.07950 
0.07950 
-0.03800 
-0.03800 
0.08250 
0.08250 
-0.03300 
-0.03300 
-0.03800 
-0.03800 
-0.01900 
-0.01900 
-0.01200 
-0.01200 
0.00550 
0.00550 
-0.00050 
-0.00050 
-0.07700 
-0.07700 
-0.06700 
-0.06700 
-0.03250 
-0.03250 
-0.02500 
-0.02500 
-0.01600 
-0.01600 
-0.08700 
-0.08700 
0.03800 
0.03800 
0.01800 
0.01800 
-0.02600 
-0.02600 
-0.11450 
-0.11450 
0.02350 
0.02350 
-0.03250 
-0.03250 
-0.06000 
-0.06000 
0.01900 
0.01900 
0.02600 
0.02600 
-0.01600 
-0.01600 
-0.10600 
-0.10600 
-0.06500 
-0.06500 
-0.01850 
-0.01850 
-0.06650 
-0.06650 
0.04350 
0.04350 
0.05550 
0.05550 
0.04450 
0.04450 
0.07750 
0.07750 
0.07750 
0.07750 
0.03050 
0.03050 
-0.12500 
-0.12500 
-0.05150 
-0.05150 
0.01600 
0.01600 
0.04900 
0.04900 
-0.11300 
-0.11300 
0.01250 
0.01250 
0.03650 
0.03650 
0.02250 
0.02250 
-0.02750 
-0.02750 
0.01150 
0.01150 
0.06950 
0.06950 
0.02000 
0.02000 
0.06650 
0.06650 
-0.02550 
-0.02550 
-0.02450 
-0.02450 
0.06050 
0.06050 
0.02750 
0.02750 
0.00550 
0.00550 
0.02500 
0.02500 
-0.04400 
-0.04400 
0.00800 
0.00800 
-0.01550 
-0.01550 
0.00850 
0.00850 
0.07300 
0.07300 
-0.07000 
-0.07000 
0.00500 
0.00500 
0.01650 
0.01650 
-0.00450 
-0.00450 
0.03600 
0.03600 
0.02550 
0.02550 
-0.07600 
-0.07600 
0.02100 
0.02100 
0.01800 
0.01800 
-0.04750 
-0.04750 
-0.02800 
-0.02800 
0.00250 
0.00250 
-0.03600 
-0.03600 
-0.04550 
-0.04550 
0.02950 
0.02950 
0.02000 
0.02000 
-0.02950 
-0.02950 
-0.01550 
-0.01550 
0.03400 
0.03400 
0.01400 
0.01400 
0.01550 
0.01550 
0.00750 
0.00750 
0.01950 
0.01950 
-0.01600 
-0.01600 
-0.00250 
-0.00250 
0.03900 
0.03900 
0.10750 
0.10750 
SCALARS Umean_Y double 1 
LOOKUP_TABLE default
-0.00100 
-0.00100 
0.00750 
0.00750 
0.05300 
0.05300 
-0.02550 
-0.02550 
0.02000 
0.02000 
0.03200 
0.03200 
-0.03350 
-0.03350 
0.01100 
0.01100 
-0.01150 
-0.01150 
0.03900 
0.03900 
0.01100 
0.01100 
0.00100 
0.00100 
0.04200 
0.04200 
0.00400 
0.00400 
-0.00350 
-0.00350 
0.04400 
0.04400 
-0.01350 
-0.01350 
0.00450 
0.00450 
0.12000 
0.12000 
0.02250 
0.02250 
0.03000 
0.03000 
-0.00950 
-0.00950 
0.06850 
0.06850 
0.14700 
0.14700 
0.03000 
0.03000 
-0.03700 
-0.03700 
-0.01900 
-0.01900 
0.04700 
0.04700 