# vtk DataFile Version 2.1 
Trajects from timestep 154 with color option 
ASCII 
 
DATASET POLYDATA POINTS 986 float 
-2.248 6.149 -71.005 
-2.272 6.386 -71.271 
0.224 4.792 -69.769 
0.311 4.906 -70.021 
-0.516 10.154 -72.043 
-0.581 10.240 -72.055 
-0.666 7.237 -68.593 
-0.717 7.368 -68.705 
0.514 9.834 -71.116 
0.497 9.955 -71.110 
5.806 6.540 -71.008 
5.921 6.665 -71.189 
4.159 8.661 -69.821 
4.148 8.682 -69.862 
0.248 -2.445 -72.979 
0.414 -2.446 -73.117 
0.377 3.739 -71.372 
0.480 3.904 -71.756 
-6.777 7.605 -71.138 
-6.785 7.852 -71.448 
-1.935 12.676 -68.978 
-2.029 12.917 -68.847 
-0.190 -1.859 -70.045 
-0.043 -1.622 -70.199 
-7.991 -3.179 -73.491 
-8.037 -3.039 -73.610 
-4.251 6.963 -67.488 
-4.334 7.111 -67.583 
-2.329 -5.343 -70.973 
-2.298 -5.093 -71.098 
0.976 2.178 -72.709 
1.048 2.386 -73.236 
3.451 0.189 -70.822 
3.694 0.410 -71.081 
2.174 4.944 -73.022 
2.182 5.177 -73.369 
-1.601 4.911 -69.393 
-1.420 5.081 -69.688 
2.898 7.502 -73.430 
3.041 7.627 -73.491 
-0.498 8.257 -72.896 
-0.411 8.394 -72.901 
-9.508 4.729 -69.138 
-9.425 4.950 -69.387 
-0.791 7.948 -68.022 
-0.872 8.041 -67.986 
5.991 3.776 -73.068 
6.126 3.850 -73.423 
-2.967 -8.497 -68.032 
-3.137 -8.571 -68.193 
13.835 3.770 -70.739 
13.827 4.082 -70.883 
-0.130 -1.170 -67.817 
0.087 -0.745 -68.154 
-8.649 0.921 -72.870 
-8.439 1.200 -73.130 
-8.274 -0.577 -68.236 
-8.156 -0.272 -68.575 
-2.791 -1.751 -70.166 
-2.775 -1.462 -70.447 
-7.490 5.683 -71.544 
-7.399 5.972 -71.865 
5.489 2.825 -68.108 
5.608 3.057 -68.660 
2.797 8.893 -69.792 
2.717 8.915 -69.819 
-1.272 -3.935 -70.849 
-1.246 -3.595 -71.001 
-3.552 2.167 -70.371 
-3.395 2.452 -70.662 
12.383 7.867 -72.028 
12.657 8.068 -72.248 
-10.446 5.836 -76.002 
-10.339 5.977 -76.036 
0.739 -10.916 -75.290 
0.966 -10.807 -75.400 
0.517 -1.904 -73.173 
0.659 -1.901 -73.475 
9.484 10.107 -68.374 
9.599 10.028 -68.362 
-2.233 -11.585 -70.237 
-2.116 -11.509 -70.313 
4.091 0.779 -74.040 
4.266 0.925 -74.363 
1.559 3.894 -67.939 
1.628 3.952 -68.172 
-10.972 3.563 -66.459 
-10.854 3.687 -66.536 
3.989 5.692 -69.678 
4.044 5.830 -69.931 
3.286 -12.543 -73.230 
3.523 -12.396 -73.252 
0.630 -12.116 -71.305 
0.833 -11.949 -71.325 
16.213 2.476 -68.511 
16.301 2.737 -68.576 
8.644 2.284 -69.084 
8.818 2.404 -69.401 
-2.113 3.372 -66.398 
-1.862 3.561 -66.836 
2.407 -9.326 -64.641 
2.626 -9.092 -64.597 
4.486 10.743 -67.667 
4.446 10.776 -67.529 
0.284 5.198 -65.157 
0.389 5.334 -65.317 
4.346 -7.450 -73.523 
4.490 -7.433 -73.730 
0.345 2.732 -65.054 
0.630 2.921 -65.316 
3.659 -0.590 -70.297 
3.951 -0.302 -70.461 
-6.162 11.025 -64.564 
-6.303 11.184 -64.494 
7.052 2.086 -65.631 
7.030 2.185 -65.985 
-8.411 -5.858 -72.223 
-8.350 -5.850 -72.447 
3.870 -4.953 -71.844 
4.137 -4.871 -71.958 
7.002 -9.826 -64.782 
7.170 -9.931 -64.923 
8.748 -2.429 -69.739 
8.998 -2.285 -70.337 
5.393 1.897 -65.133 
5.339 2.067 -65.521 
-0.273 -4.310 -69.304 
-0.180 -4.102 -69.712 
0.790 2.796 -73.610 
0.909 2.924 -74.020 
-2.494 -4.372 -71.086 
-2.379 -4.092 -71.165 
-9.635 -2.854 -69.401 
-9.547 -2.831 -69.514 
1.259 -2.937 -66.072 
1.598 -2.738 -66.567 
-11.298 7.313 -69.768 
-11.328 7.441 -70.051 
5.766 8.119 -63.061 
5.912 8.230 -63.001 
-2.746 0.461 -66.253 
-2.686 0.645 -66.442 
-8.445 8.221 -65.405 
-8.526 8.300 -65.526 
6.222 -2.502 -73.983 
6.306 -2.390 -74.453 
1.015 -7.205 -63.521 
0.936 -7.020 -63.739 
3.588 -5.819 -67.657 
3.956 -5.700 -68.197 
-3.007 1.848 -67.700 
-2.916 2.082 -67.954 
-2.184 -9.192 -72.948 
-2.021 -9.081 -73.082 
-3.758 4.871 -62.749 
-3.538 4.988 -62.692 
5.827 -0.199 -69.651 
6.034 -0.017 -69.907 
2.240 7.704 -66.791 
2.212 7.688 -66.910 
-3.933 12.072 -70.181 
-4.076 12.123 -70.055 
8.120 4.367 -70.545 
8.314 4.370 -70.817 
-13.562 8.041 -68.717 
-13.618 8.282 -68.909 
4.028 -8.622 -61.896 
3.963 -8.484 -61.996 
6.046 0.727 -69.551 
6.178 0.937 -70.038 
2.168 10.508 -63.632 
2.107 10.657 -63.685 
-3.823 -11.726 -75.275 
-3.698 -11.551 -75.345 
-14.074 -4.913 -72.999 
-13.971 -4.594 -73.216 
0.512 -11.946 -66.432 
0.677 -12.044 -66.624 
-6.919 -4.998 -69.315 
-6.723 -4.749 -69.523 
7.882 7.577 -69.397 
8.026 7.507 -69.522 
-0.323 11.219 -68.032 
-0.493 11.333 -67.894 
-4.887 10.329 -64.986 
-5.013 10.478 -65.043 
1.282 5.456 -65.094 
1.292 5.588 -65.347 
9.475 -3.156 -71.329 
9.503 -3.066 -71.706 
-5.658 8.971 -63.711 
-5.673 9.145 -63.623 
-2.600 -12.379 -68.987 
-2.467 -12.347 -69.085 
7.900 2.679 -65.187 
7.974 2.693 -65.423 
7.151 4.556 -73.133 
7.362 4.659 -73.526 
3.629 -3.421 -67.372 
3.854 -3.139 -67.784 
-3.509 -7.509 -63.163 
-3.256 -7.486 -63.828 
2.667 10.583 -67.694 
2.588 10.524 -67.554 
0.317 -6.263 -66.039 
0.407 -6.045 -66.461 
7.475 -5.342 -76.271 
7.637 -5.300 -76.520 
7.347 -1.520 -69.916 
7.613 -1.284 -70.459 
-12.747 -0.310 -68.624 
-12.562 -0.155 -68.838 
11.043 -2.012 -67.159 
11.252 -2.016 -67.515 
11.940 11.402 -69.195 
12.135 11.199 -69.171 
3.408 -7.988 -65.109 
3.410 -7.878 -65.238 
9.378 -0.192 -64.581 
9.461 -0.011 -64.840 
10.058 9.448 -67.774 
10.051 9.442 -67.810 
1.750 2.776 -62.224 
1.796 2.849 -62.531 
11.367 4.255 -72.788 
11.542 4.408 -73.153 
12.175 -2.286 -68.604 
12.325 -2.148 -68.788 
6.289 -5.110 -66.296 
6.515 -4.976 -66.639 
-9.903 0.761 -65.579 
-9.647 1.055 -65.661 
1.175 -1.552 -67.589 
1.478 -1.173 -67.833 
-11.383 3.555 -68.565 
-11.059 3.687 -68.597 
14.829 -4.375 -68.306 
14.998 -4.340 -68.567 
-9.948 10.186 -70.718 
-9.888 10.307 -70.881 
-3.759 9.448 -72.669 
-3.783 9.718 -72.653 
-5.359 -2.989 -67.641 
-5.290 -2.728 -68.158 
-8.685 8.962 -71.591 
-8.688 9.237 -71.845 
-6.528 -8.391 -67.057 
-6.406 -8.409 -67.078 
-8.816 12.447 -64.790 
-8.855 12.707 -64.764 
10.000 -0.877 -69.690 
10.213 -0.937 -69.986 
-12.129 11.612 -66.772 
-11.980 11.779 -66.773 
15.476 -6.669 -73.342 
15.434 -6.665 -73.470 
-3.516 -1.006 -64.559 
-3.285 -0.845 -64.857 
2.711 2.698 -61.651 
2.652 2.828 -62.027 
-4.375 5.084 -63.056 
-4.121 5.384 -63.196 
8.832 -5.534 -72.693 
9.070 -5.455 -73.068 
0.773 -8.108 -69.456 
0.898 -8.071 -69.746 
-14.953 -2.381 -72.990 
-14.874 -2.123 -73.259 
-4.924 -4.869 -67.450 
-4.700 -4.661 -67.987 
-10.993 7.840 -74.415 
-10.971 8.103 -74.650 
-9.557 7.933 -73.301 
-9.544 8.302 -73.557 
14.772 4.839 -67.106 
14.844 5.061 -67.271 
12.499 2.309 -67.450 
12.511 2.384 -67.484 
-7.555 10.941 -77.589 
-7.591 11.126 -77.740 
11.508 8.163 -68.663 
11.530 8.302 -68.755 
-1.814 -5.435 -66.669 
-1.560 -5.257 -67.062 
-8.951 -11.611 -75.288 
-8.807 -11.744 -75.282 
-0.123 -1.315 -73.410 
0.019 -1.238 -73.732 
4.572 2.680 -66.529 
4.652 2.845 -66.901 
1.110 -7.029 -66.535 
1.287 -6.957 -66.816 
1.024 3.810 -69.326 
1.135 3.938 -69.655 
-9.164 0.566 -75.870 
-9.068 0.702 -76.020 
1.947 -6.863 -65.471 
1.878 -6.822 -65.927 
1.717 -7.719 -66.911 
2.008 -7.819 -67.139 
-8.784 9.901 -66.863 
-8.775 9.975 -66.975 
-12.037 1.407 -64.517 
-11.825 1.555 -64.429 
13.360 2.999 -67.551 
13.407 3.196 -67.691 
-0.027 -9.056 -64.792 
0.264 -9.071 -65.322 
5.949 4.345 -73.299 
6.071 4.434 -73.302 
-12.172 6.801 -67.803 
-12.117 6.995 -68.150 
-10.533 1.789 -70.642 
-10.324 2.063 -70.726 
7.205 -4.134 -73.567 
7.315 -3.996 -74.093 
12.869 4.964 -67.706 
12.924 5.128 -67.713 
-0.707 13.000 -66.298 
-0.789 13.090 -66.080 
6.669 12.438 -65.140 
6.574 12.430 -65.074 
6.505 -11.783 -65.035 
6.661 -11.799 -65.007 
-13.478 -1.810 -65.313 
-13.246 -1.519 -65.353 
-14.127 -6.479 -72.343 
-14.022 -6.299 -72.474 
7.829 -6.890 -64.062 
7.950 -6.737 -64.446 
-14.786 0.877 -70.272 
-14.489 1.091 -70.286 
7.964 8.668 -69.145 
7.985 8.626 -69.235 
3.504 7.974 -65.740 
3.610 8.062 -65.927 
1.923 6.944 -64.629 
2.031 7.119 -64.738 
4.638 -4.833 -62.956 
4.850 -4.768 -63.436 
-3.702 4.231 -64.067 
-3.480 4.343 -64.251 
4.833 -1.008 -66.627 
4.957 -0.957 -66.856 
3.924 6.316 -65.988 
3.993 6.456 -66.197 
-4.863 11.650 -69.315 
-4.968 11.756 -69.294 
1.119 -1.416 -73.048 
1.127 -1.427 -73.279 
9.096 -12.246 -65.007 
9.343 -12.248 -64.896 
-9.179 -7.570 -73.594 
-9.129 -7.459 -73.714 
11.765 11.585 -67.425 
11.792 11.550 -67.364 
-6.780 5.945 -73.350 
-6.723 6.220 -73.653 
3.726 -10.888 -63.835 
3.703 -10.785 -63.717 
-11.752 4.050 -75.852 
-11.734 4.206 -75.974 
-3.346 2.105 -75.474 
-3.176 2.259 -75.691 
5.899 -7.283 -70.896 
6.104 -7.165 -71.184 
15.313 1.705 -68.633 
15.341 1.912 -68.735 
-10.036 10.390 -68.810 
-10.001 10.457 -68.898 
13.460 -3.652 -69.540 
13.571 -3.536 -69.758 
11.871 1.004 -68.503 
11.787 1.164 -68.712 
-2.874 3.732 -64.912 
-2.719 3.877 -65.359 
1.546 5.966 -71.330 
1.488 6.160 -71.706 
1.087 5.048 -65.936 
1.138 5.157 -66.237 
-10.704 10.516 -64.847 
-10.623 10.612 -64.831 
2.165 -0.734 -70.619 
2.437 -0.526 -70.714 
14.324 5.127 -66.895 
14.445 5.362 -67.059 
1.030 -7.024 -69.824 
1.237 -6.933 -70.024 
7.478 -0.325 -62.322 
7.648 -0.215 -62.675 
-2.771 -7.237 -68.974 
-2.871 -7.164 -69.070 
-9.338 -2.955 -72.787 
-9.321 -2.840 -73.135 
1.402 3.535 -58.658 
1.289 3.735 -58.662 
-0.450 3.370 -72.258 
-0.355 3.470 -72.573 
11.713 5.775 -69.219 
11.780 5.956 -69.249 
4.097 -1.182 -66.501 
4.262 -1.063 -66.632 
9.869 3.757 -67.674 
10.141 3.761 -67.866 
-6.785 3.247 -73.685 
-6.718 3.350 -73.986 
-5.656 -8.226 -70.681 
-5.525 -8.003 -71.063 
4.275 -12.405 -71.783 
4.489 -12.324 -71.800 
7.076 0.749 -64.322 
7.118 0.882 -64.651 
-9.569 -8.197 -70.843 
-9.319 -7.910 -70.774 
2.016 7.299 -68.048 
1.926 7.379 -68.152 
-0.369 -12.311 -65.469 
-0.171 -12.193 -65.348 
3.875 -6.462 -71.908 
4.046 -6.455 -72.016 
11.469 12.388 -67.537 
11.633 12.288 -67.639 
0.763 -6.223 -74.297 
0.885 -6.228 -74.485 
-14.488 -2.777 -69.491 
-14.297 -2.405 -69.666 
4.241 -2.897 -66.135 
4.435 -2.836 -66.465 
11.744 -11.610 -70.800 
11.849 -11.691 -70.983 
13.525 4.916 -66.171 
13.630 5.083 -66.451 
15.511 6.559 -67.511 
15.617 6.812 -67.743 
13.130 -5.021 -70.694 
13.220 -4.913 -70.959 
8.391 2.536 -66.879 
8.471 2.559 -67.157 
9.847 -0.136 -71.896 
10.103 -0.179 -72.277 
-4.854 12.509 -65.589 
-4.944 12.621 -65.441 
-12.161 3.052 -73.971 
-12.032 3.152 -74.247 
[...]
POINT_DATA 986 
SCALARS Umean double 1 
LOOKUP_TABLE default
0.17854 
0.17854 
0.14497 
0.14497 
0.05423 
0.05423 
0.08987 
0.08987 
0.06117 
0.06117 
0.12411 
0.12411 
0.02368 
0.02368 
0.10794 
0.10794 
0.21523 
0.21523 
0.19823 
0.19823 
0.14498 
0.14498 
0.15929 
0.15929 
0.09471 
0.09471 
0.09723 
0.09723 
0.14061 
0.14061 
0.28556 
0.28556 
0.20915 
0.20915 
0.20902 
0.20902 
0.19280 
0.19280 
0.09974 
0.09974 
0.08118 
0.08118 
0.17156 
0.17156 
0.06424 
0.06424 
0.19347 
0.19347 
0.12278 
0.12278 
0.17186 
0.17186 
0.29210 
0.29210 
0.21768 
0.21768 
0.23552 
0.23552 
0.20170 
0.20170 
0.22071 
0.22071 
0.30524 
0.30524 
0.04363 
0.04363 
0.18667 
0.18667 
0.21826 
0.21826 
0.20241 
0.20241 
0.09012 
0.09012 
0.13740 
0.13740 
0.16687 
0.16687 
0.07002 
0.07002 
0.07944 
0.07944 
0.19766 
0.19766 
0.12491 
0.12491 
0.09385 
0.09385 
0.14670 
0.14670 
0.13988 
0.13988 
0.13181 
0.13181 
0.14150 
0.14150 
0.19050 
0.19050 
0.26952 
0.26952 
0.16175 
0.16175 
0.07371 
0.07371 
0.11739 
0.11739 
0.12637 
0.12637 
0.21540 
0.21540 
0.22085 
0.22085 
0.11187 
0.11187 
0.18412 
0.18412 
0.11615 
0.11615 
0.15084 
0.15084 
0.12158 
0.12158 
0.33198 
0.33198 
0.21352 
0.21352 
0.23365 
0.23365 
0.22285 
0.22285 
0.15642 
0.15642 
0.07253 
0.07253 
0.31605 
0.31605 
0.15602 
0.15602 
0.09648 
0.09648 
0.13526 
0.13526 
0.08283 
0.08283 
0.24520 
0.24520 
0.14832 
0.14832 
0.33211 
0.33211 
0.17857 
0.17857 
0.11921 
0.11921 
0.12781 
0.12781 
0.18809 
0.18809 
0.06165 
0.06165 
0.09865 
0.09865 
0.16705 
0.16705 
0.15659 
0.15659 
0.09120 
0.09120 
0.27326 
0.27326 
0.08475 
0.08475 
0.11308 
0.11308 
0.19966 
0.19966 
0.13573 
0.13573 
0.18953 
0.18953 
0.10156 
0.10156 
0.12343 
0.12343 
0.10164 
0.10164 
0.14277 
0.14277 
0.19430 
0.19430 
0.09778 
0.09778 
0.08414 
0.08414 
0.12386 
0.12386 
0.22890 
0.22890 
0.27381 
0.27381 
0.35594 
0.35594 
0.08562 
0.08562 
0.24172 
0.24172 
0.15001 
0.15001 
0.32454 
0.32454 
0.16128 
0.16128 
0.20642 
0.20642 
0.14125 
0.14125 
0.08477 
0.08477 
0.16335 
0.16335 
0.01858 
0.01858 
0.15945 
0.15945 
0.21637 
0.21637 
0.13730 
0.13730 
0.21603 
0.21603 
0.19918 
0.19918 
0.27156 
0.27156 
0.17566 
0.17566 
0.15645 
0.15645 
0.10584 
0.10584 
0.13577 
0.13577 
0.29162 
0.29162 
0.18718 
0.18718 
0.06255 
0.06255 
0.13210 
0.13210 
0.18479 
0.18479 
0.11191 
0.11191 
0.06739 
0.06739 
0.20499 
0.20499 
0.20110 
0.20110 
0.20864 
0.20864 
0.22556 
0.22556 
0.15898 
0.15898 
0.19050 
0.19050 
0.30895 
0.30895 
0.17669 
0.17669 
0.22465 
0.22465 
0.14291 
0.14291 
0.04161 
0.04161 
0.12075 
0.12075 
0.08407 
0.08407 
0.25032 
0.25032 
0.09806 
0.09806 
0.18012 
0.18012 
0.20737 
0.20737 
0.16991 
0.16991 
0.18503 
0.18503 
0.11204 
0.11204 
0.23150 
0.23150 
0.19148 
0.19148 
0.06727 
0.06727 
0.13656 
0.13656 
0.12310 
0.12310 
0.30241 
0.30241 
0.07552 
0.07552 
0.20067 
0.20067 
0.17735 
0.17735 
0.27741 
0.27741 
0.08656 
0.08656 
0.12485 
0.12485 
0.05798 
0.05798 
0.07965 
0.07965 
0.18715 
0.18715 
0.12307 
0.12307 
0.21535 
0.21535 
0.18317 
0.18317 
0.05076 
0.05076 
0.11613 
0.11613 
0.11637 
0.11637 
0.26437 
0.26437 
0.15466 
0.15466 
0.13268 
0.13268 
0.13042 
0.13042 
0.07534 
0.07534 
0.11570 
0.11570 
0.13540 
0.13540 
0.08547 
0.08547 
0.03767 
0.03767 
0.20657 
0.20657 
0.07915 
0.07915 
0.09943 
0.09943 
0.15788 
0.15788 
0.18634 
0.18634 
0.11623 
0.11623 
0.05800 
0.05800 
0.13537 
0.13537 
0.13815 
0.13815 
0.24742 
0.24742 
0.21353 
0.21353 
0.16208 
0.16208 
0.06331 
0.06331 
0.17767 
0.17767 
0.15553 
0.15553 
0.15094 
0.15094 
0.20348 
0.20348 
0.07833 
0.07833 
0.18345 
0.18345 
0.11487 
0.11487 
0.17194 
0.17194 
0.09766 
0.09766 
0.12098 
0.12098 
0.16648 
0.16648 
0.16256 
0.16256 
0.23066 
0.23066 
0.11472 
0.11472 
0.17867 
0.17867 
0.19341 
0.19341 
0.07956 
0.07956 
0.13016 
0.13016 
0.10119 
0.10119 
0.10874 
0.10874 
0.11209 
0.11209 
0.22666 
0.22666 
0.19381 
0.19381 
0.11300 
0.11300 
0.17126 
0.17126 
0.17963 
0.17963 
0.14999 
0.14999 
0.14510 
0.14510 
0.23051 
0.23051 
0.10314 
0.10314 
0.16033 
0.16033 
0.14823 
0.14823 
0.29990 
0.29990 
0.12087 
0.12087 
0.19969 
0.19969 
0.19375 
0.19375 
0.12190 
0.12190 
0.19853 
0.19853 
0.06420 
0.06420 
0.13686 
0.13686 
0.16091 
0.16091 
0.14377 
0.14377 
0.06305 
0.06305 
0.10510 
0.10510 
0.13345 
0.13345 
0.07971 
0.07971 
0.12633 
0.12633 
0.14917 
0.14917 
0.23975 
0.23975 
0.16831 
0.16831 
0.14568 
0.14568 
0.23890 
0.23890 
0.14498 
0.14498 
0.31103 
0.31103 
0.13019 
0.13019 
0.05857 
0.05857 
0.09829 
0.09829 
0.10545 
0.10545 
0.06857 
0.06857 
0.12548 
0.12548 
0.11525 
0.11525 
0.11911 
0.11911 
0.13914 
0.13914 
0.08629 
0.08629 
0.06266 
0.06266 
0.22704 
0.22704 
0.08808 
0.08808 
0.30180 
0.30180 
0.18574 
0.18574 
0.16360 
0.16360 
0.13803 
0.13803 
0.12132 
0.12132 
0.20265 
0.20265 
0.31488 
0.31488 
0.09298 
0.09298 
0.19614 
0.19614 
0.19419 
0.19419 
0.15304 
0.15304 
0.07366 
0.07366 
0.03934 
0.03934 
0.23001 
0.23001 
0.19325 
0.19325 
0.04201 
0.04201 
0.06817 
0.06817 
0.06385 
0.06385 
0.27603 
0.27603 
0.13247 
0.13247 
0.09508 
0.09508 
0.22212 
0.22212 
0.11195 
0.11195 
0.12870 
0.12870 
0.11473 
0.11473 
0.18622 
0.18622 
0.10962 
0.10962 
0.24527 
0.24527 
0.14695 
0.14695 
0.12286 
0.12286 
0.16552 
0.16552 
0.17179 
0.17179 
0.13442 
0.13442 
0.21267 
0.21267 
0.09408 
0.09408 
0.15540 
0.15540 
0.18075 
0.18075 
0.08567 
0.08567 
0.16263 
0.16263 
0.09545 
0.09545 
0.37009 
0.37009 
0.18920 
0.18920 
0.07310 
0.07310 
0.18405 
0.18405 
0.20457 
0.20457 
0.15355 
0.15355 
0.10259 
0.10259 
0.11532 
0.11532 
0.07875 
0.07875 
0.14936 
0.14936 
0.14942 
0.14942 
0.11687 
0.11687 
0.05150 
0.05150 
0.18311 
0.18311 
0.13945 
0.13945 
0.10840 
0.10840 
0.24656 
0.24656 
0.09946 
0.09946 
0.08545 
0.08545 
0.11814 
0.11814 
0.13927 
0.13927 
0.25019 
0.25019 
0.13954 
0.13954 
0.09163 
0.09163 
0.23173 
0.23173 
0.09343 
0.09343 
0.12108 
0.12108 
0.19446 
0.19446 
0.14669 
0.14669 
0.12947 
0.12947 
0.13645 
0.13645 
0.06620 
0.06620 
0.07240 
0.07240 
0.30413 
0.30413 
0.24596 
0.24596 
0.12254 
0.12254 
0.12831 
0.12831 
0.12185 
0.12185 
0.11869 
0.11869 
0.28135 
0.28135 
0.09775 
0.09775 
0.17209 
0.17209 
0.12904 
0.12904 
0.26581 
0.26581 
0.18711 
0.18711 
0.10243 
0.10243 
0.12735 
0.12735 
0.24734 
0.24734 
0.16075 
0.16075 
0.12517 
0.12517 
0.06469 
0.06469 
0.11524 
0.11524 
0.06608 
0.06608 
0.08515 
0.08515 
0.34495 
0.34495 
0.07819 
0.07819 
0.22106 
0.22106 
0.06094 
0.06094 
0.15379 
0.15379 
0.21102 
0.21102 
0.10746 
0.10746 
0.11353 
0.11353 
0.20169 
0.20169 
0.36945 
0.36945 
0.18857 
0.18857 
0.08401 
0.08401 
0.17128 
0.17128 
0.14813 
0.14813 
0.23808 
0.23808 
0.32066 
0.32066 
0.15400 
0.15400 
0.09215 
0.09215 
0.07030 
0.07030 
0.10642 
0.10642 
0.12224 
0.12224 
0.21710 
0.21710 
0.11918 
0.11918 
0.21026 
0.21026 
0.16283 
0.16283 
0.15183 
0.15183 
0.11005 
0.11005 
0.11415 
0.11415 
0.04276 
0.04276 
0.09166 
0.09166 
0.23305 
0.23305 
0.06065 
0.06065 
0.13270 
0.13270 
0.10002 
0.10002 
0.12832 
0.12832 
0.12899 
0.12899 
0.18085 
0.18085 
0.15880 
0.15880 
0.18775 
0.18775 
0.18719 
0.18719 
0.15321 
0.15321 
0.27882 
0.27882 
0.09173 
0.09173 
0.16239 
0.16239 
0.09144 
0.09144 
0.13738 
0.13738 
0.13536 
0.13536 
0.22628 
0.22628 
0.17164 
0.17164 
0.06639 
0.06639 
0.16256 
0.16256 
0.21844 
0.21844 
0.14256 
0.14256 
0.24670 
0.24670 
0.10609 
0.10609 
0.06697 
0.06697 
0.12189 
0.12189 
0.06214 
0.06214 
0.11619 
0.11619 
0.11847 
0.11847 
0.22246 
0.22246 
0.14227 
0.14227 
0.16299 
0.16299 
0.16799 
0.16799 
0.24121 
0.24121 
0.14506 
0.14506 
0.14916 
0.14916 
0.17671 
0.17671 
0.13053 
0.13053 
0.16122 
0.16122 
0.22648 
0.22648 
0.25773 
0.25773 
0.10429 
0.10429 
0.18974 
0.18974 
0.07279 
0.07279 
0.13614 
0.13614 
0.09039 
0.09039 
0.03204 
0.03204 
0.15270 
0.15270 
0.21698 
0.21698 
0.06209 
0.06209 
0.05375 
0.05375 
0.12699 
0.12699 
0.12425 
0.12425 
0.11212 
0.11212 
0.07086 
0.07086 
0.14325 
0.14325 
0.17792 
0.17792 
0.24521 
0.24521 
0.07729 
0.07729 
0.20001 
0.20001 
0.07771 
0.07771 
0.09391 
0.09391 
0.24570 
0.24570 
0.28999 
0.28999 
0.14381 
0.14381 
0.23005 
0.23005 
0.03354 
0.03354 
0.08028 
0.08028 
0.16685 
0.16685 
0.15244 
0.15244 
0.05761 
0.05761 
0.12038 
0.12038 
0.12215 
0.12215 
0.03934 
0.03934 
0.09996 
0.09996 
0.18628 
0.18628 
0.12028 
0.12028 
0.11404 
0.11404 
0.13578 
0.13578 
0.16354 
0.16354 
0.21000 
0.21000 
0.19257 
0.19257 
0.04699 
0.04699 
0.23969 
0.23969 
0.11170 
0.11170 
0.22190 
0.22190 
0.20084 
0.20084 
0.10044 
0.10044 
0.09419 
0.09419 
0.04667 
0.04667 
0.22049 
0.22049 
0.14843 
0.14843 
0.18338 
0.18338 
0.13469 
0.13469 
0.11194 
0.11194 
0.12289 
0.12289 
0.06351 
0.06351 
0.10120 
0.10120 
0.11282 
0.11282 
0.22358 
0.22358 
0.10306 
0.10306 
0.18839 
0.18839 
0.10193 
0.10193 
0.12110 
0.12110 
0.10632 
0.10632 
0.26312 
0.26312 
0.20805 
0.20805 
0.13074 
0.13074 
0.09190 
0.09190 
0.11648 
0.11648 
SCALARS Umean_X double 1 
LOOKUP_TABLE default
-0.01200 
-0.01200 
0.04350 
0.04350 
-0.03250 
-0.03250 
-0.02550 
-0.02550 
-0.00850 
-0.00850 
0.05750 
0.05750 
-0.00550 
-0.00550 
0.08300 
0.08300 
0.05150 
0.05150 
-0.00400 
-0.00400 
-0.04700 
-0.04700 
0.07350 
0.07350 
-0.02300 
-0.02300 
-0.04150 
-0.04150 
0.01550 
0.01550 
0.03600 
0.03600 
0.12150 
0.12150 
0.00400 
0.00400 
0.09050 
0.09050 
0.07150 
0.07150 
0.04350 
0.04350 
0.04150 
0.04150 
-0.04050 
-0.04050 
0.06750 
0.06750 
-0.08500 
-0.08500 
-0.00400 
-0.00400 
0.10850 
0.10850 
0.10500 
0.10500 
0.05900 
0.05900 
0.00800 
0.00800 
0.04550 
0.04550 
0.05950 
0.05950 
-0.04000 
-0.04000 
0.01300 
0.01300 
0.07850 
0.07850 
0.13700 
0.13700 
0.05350 
0.05350 
0.11350 
0.11350 
0.07100 
0.07100 
0.05750 
0.05750 
0.05850 
0.05850 
0.08750 
0.08750 
0.03450 
0.03450 
0.05900 
0.05900 
0.02750 
0.02750 
0.11850 
0.11850 
0.10150 
0.10150 
0.04400 
0.04400 
0.08700 
0.08700 
0.12550 
0.12550 
0.10950 
0.10950 
-0.02000 
-0.02000 
0.05250 
0.05250 
0.07200 
0.07200 
0.14250 
0.14250 
0.14600 
0.14600 
-0.07050 
-0.07050 
-0.01100 
-0.01100 
0.03050 
0.03050 
0.13350 
0.13350 
0.08400 
0.08400 
0.12500 
0.12500 
-0.02700 
-0.02700 
0.04650 
0.04650 
0.05950 
0.05950 
0.05750 
0.05750 
0.04400 
0.04400 
0.16950 
0.16950 
-0.01500 
-0.01500 
0.07300 
0.07300 
0.03000 
0.03000 
-0.04050 
-0.04050 
0.04200 
0.04200 
-0.03950 
-0.03950 
0.18400 
0.18400 
0.04550 
0.04550 
0.08150 
0.08150 
0.11000 
0.11000 
0.10350 
0.10350 
-0.01400 
-0.01400 
-0.07150 
-0.07150 
0.09700 
0.09700 
-0.02800 
-0.02800 
-0.03250 
-0.03250 
0.06600 
0.06600 
-0.03050 
-0.03050 
0.06250 
0.06250 
0.05150 
0.05150 
0.08250 
0.08250 
0.09800 
0.09800 
0.07200 
0.07200 
-0.08500 
-0.08500 
-0.06300 
-0.06300 
0.00500 
0.00500 
0.01400 
0.01400 
-0.00750 
-0.00750 
0.06650 
0.06650 
0.03700 
0.03700 
0.10550 
0.10550 
0.11250 
0.11250 
0.12650 
0.12650 
-0.03950 
-0.03950 
0.04500 
0.04500 
0.08100 
0.08100 
0.13300 
0.13300 
0.09250 
0.09250 
0.10450 
0.10450 
0.09750 
0.09750 
0.00100 
0.00100 
0.04150 
0.04150 
-0.00350 
-0.00350 
0.02300 
0.02300 
0.08750 
0.08750 
0.07500 
0.07500 
0.11300 
0.11300 
0.12800 
0.12800 
0.15150 
0.15150 
0.16200 
0.16200 
0.08450 
0.08450 
0.03000 
0.03000 
-0.01200 
-0.01200 
0.03450 
0.03450 
-0.00150 
-0.00150 
0.06100 
0.06100 
-0.01950 
-0.01950 
0.10650 
0.10650 
0.07450 
0.07450 
-0.02100 
-0.02100 
0.11550 
0.11550 
-0.02950 
-0.02950 
0.12700 
0.12700 
0.11900 
0.11900 
0.06250 
0.06250 
0.03950 
0.03950 
0.11200 
0.11200 
0.01100 
0.01100 
0.00650 
0.00650 
0.03600 
0.03600 
0.00600 
0.00600 
-0.01800 
-0.01800 
0.01100 
0.01100 
0.12700 
0.12700 
0.07200 
0.07200 
0.07100 
0.07100 
0.04000 
0.04000 
0.08850 
0.08850 
0.05550 
0.05550 
0.04800 
0.04800 
-0.03450 
-0.03450 
0.14550 
0.14550 
0.00450 
0.00450 
0.10600 
0.10600 
0.02350 
0.02350 
0.14550 
0.14550 
0.06100 
0.06100 
0.02750 
0.02750 
0.10450 
0.10450 
0.05500 
0.05500 
0.02750 
0.02750 
-0.04100 
-0.04100 
-0.04750 
-0.04750 
0.07800 
0.07800 
0.11600 
0.11600 
0.05250 
0.05250 
0.06050 
0.06050 
0.14850 
0.14850 
0.01050 
0.01050 
0.05300 
0.05300 
0.05400 
0.05400 
0.10600 
0.10600 
0.11100 
0.11100 
0.06200 
0.06200 
0.03450 
0.03450 
-0.05250 
-0.05250 
0.00400 
0.00400 
0.12350 
0.12350 
0.02500 
0.02500 
0.01350 
0.01350 
0.02850 
0.02850 
-0.01150 
-0.01150 
0.00900 
0.00900 
0.08500 
0.08500 
0.10250 
0.10250 
0.01400 
0.01400 
0.01750 
0.01750 
0.05550 
0.05550 
-0.04200 
-0.04200 
0.07750 
0.07750 
-0.02900 
-0.02900 
0.02550 
0.02550 
0.04050 
0.04050 
0.13600 
0.13600 
0.06050 
0.06050 
0.10350 
0.10350 
0.08500 
0.08500 
-0.05000 
-0.05000 
0.00850 
0.00850 
-0.05650 
-0.05650 
0.04750 
0.04750 
0.03350 
0.03350 
0.08250 
0.08250 
0.13600 
0.13600 
0.03350 
0.03350 
0.06550 
0.06550 
0.10700 
0.10700 
0.02100 
0.02100 
0.12500 
0.12500 
-0.04500 
-0.04500 
0.09900 
0.09900 
0.08550 
0.08550 
0.08200 
0.08200 
0.06100 
0.06100 
0.09550 
0.09550 
0.09700 
0.09700 
0.05250 
0.05250 
0.05250 
0.05250 
0.05300 
0.05300 
0.04500 
0.04500 
0.04000 
0.04000 
0.12800 
0.12800 
-0.04500 
-0.04500 
0.06450 
0.06450 
0.12050 
0.12050 
0.12650 
0.12650 
0.09650 
0.09650 
0.04800 
0.04800 
0.14500 
0.14500 
-0.02550 
-0.02550 
0.03650 
0.03650 
0.03700 
0.03700 
-0.00050 
-0.00050 
0.06150 
0.06150 
-0.06500 
-0.06500 
0.04650 
0.04650 
0.06950 
0.06950 
0.06850 
0.06850 
-0.00800 
-0.00800 
0.06050 
0.06050 
0.00200 
0.00200 
0.09050 
0.09050 
0.07350 
0.07350 
0.12000 
0.12000 
0.19700 
0.19700 
0.09200 
0.09200 
0.10800 
0.10800 
0.02600 
0.02600 
0.05650 
0.05650 
-0.00100 
-0.00100 
-0.02250 
-0.02250 
-0.02600 
-0.02600 
0.03450 
0.03450 
0.04600 
0.04600 
0.08450 
0.08450 
-0.07750 
-0.07750 
0.08000 
0.08000 
0.01600 
0.01600 
0.11850 
0.11850 
-0.00850 
-0.00850 
0.08850 
0.08850 
0.11750 
0.11750 
0.08850 
0.08850 
0.04950 
0.04950 
-0.03000 
-0.03000 
0.08600 
0.08600 
-0.06200 
-0.06200 
0.01250 
0.01250 
0.11850 
0.11850 
0.14800 
0.14800 
0.09450 
0.09450 
0.07300 
0.07300 
-0.01100 
-0.01100 
0.10450 
0.10450 
0.03600 
0.03600 
0.02200 
0.02200 
-0.02250 
-0.02250 
0.00600 
0.00600 
0.11400 
0.11400 
0.02000 
0.02000 
-0.05850 
-0.05850 
0.09250 
0.09250 
-0.08200 
-0.08200 
-0.00750 
-0.00750 
-0.02150 
-0.02150 
-0.04450 
-0.04450 
0.03400 
0.03400 
0.14950 
0.14950 
0.02600 
0.02600 
0.09200 
0.09200 
0.07700 
0.07700 
-0.00900 
-0.00900 
0.04600 
0.04600 
-0.08500 
-0.08500 
0.00050 
0.00050 
0.00700 
0.00700 
0.05850 
0.05850 
0.07650 
0.07650 
0.03250 
0.03250 
0.08100 
0.08100 
0.26650 
0.26650 
0.13800 
0.13800 
0.06450 
0.06450 
0.06650 
0.06650 
0.07500 
0.07500 
0.13050 
0.13050 
0.00050 
0.00050 
0.06850 
0.06850 
0.01100 
0.01100 
0.07000 
0.07000 
0.10150 
0.10150 
0.09650 
0.09650 
0.00950 
0.00950 
0.09200 
0.09200 
0.07500 
0.07500 
0.01300 
0.01300 
0.13050 
0.13050 
0.03900 
0.03900 
0.03150 
0.03150 
0.03850 
0.03850 
0.12450 
0.12450 
0.13150 
0.13150 
0.10150 
0.10150 
0.08450 
0.08450 
0.11350 
0.11350 
-0.03800 
-0.03800 
0.11450 
0.11450 
0.06050 
0.06050 
0.04450 
0.04450 
0.06650 
0.06650 
0.06500 
0.06500 
0.05900 
0.05900 
-0.06150 
-0.06150 
0.13450 
0.13450 
0.09250 
0.09250 
0.08550 
0.08550 
0.01850 
0.01850 
0.02750 
0.02750 
0.10800 
0.10800 
0.16400 
0.16400 
0.01800 
0.01800 
-0.03450 
-0.03450 
0.05250 
0.05250 
0.13850 
0.13850 
0.07600 
0.07600 
0.03950 
0.03950 
0.04300 
0.04300 
0.06000 
0.06000 
0.07050 
0.07050 
-0.00000 
-0.00000 
-0.05850 
-0.05850 
0.04400 
0.04400 
0.00850 
0.00850 
0.01350 
0.01350 
0.13800 
0.13800 
-0.06800 
-0.06800 
0.11800 
0.11800 
0.05550 
0.05550 
0.06550 
0.06550 
0.12800 
0.12800 
-0.03050 
-0.03050 
0.01150 
0.01150 
0.12350 
0.12350 
0.05650 
0.05650 
0.08450 
0.08450 
-0.00400 
-0.00400 
-0.03650 
-0.03650 
-0.05500 
-0.05500 
-0.07450 
-0.07450 
0.00100 
0.00100 
0.07000 
0.07000 
-0.03500 
-0.03500 
0.01250 
0.01250 
0.06200 
0.06200 
0.06850 
0.06850 
0.01300 
0.01300 
0.11750 
0.11750 
0.16000 
0.16000 
-0.06100 
-0.06100 
0.00050 
0.00050 
-0.05250 
-0.05250 
0.08100 
0.08100 
-0.01200 
-0.01200 
0.04550 
0.04550 
0.13950 
0.13950 
0.02350 
0.02350 
0.04600 
0.04600 
0.07100 
0.07100 
0.08950 
0.08950 
-0.10600 
-0.10600 
0.07850 
0.07850 
0.11450 
0.11450 
0.06800 
0.06800 
0.08550 
0.08550 
0.09750 
0.09750 
0.16700 
0.16700 
0.07850 
0.07850 
-0.08450 
-0.08450 
0.01600 
0.01600 
0.10150 
0.10150 
0.03300 
0.03300 
0.10250 
0.10250 
0.15900 
0.15900 
-0.05100 
-0.05100 
0.00300 
0.00300 
0.04700 
0.04700 
0.01150 
0.01150 
0.14750 
0.14750 
0.01600 
0.01600 
0.02650 
0.02650 
0.04750 
0.04750 
0.05900 
0.05900 
0.08100 
0.08100 
0.07100 
0.07100 
0.18850 
0.18850 
0.10450 
0.10450 
0.08800 
0.08800 
0.02350 
0.02350 
0.11000 
0.11000 
0.11750 
0.11750 
0.08200 
0.08200 
0.06200 
0.06200 
0.08250 
0.08250 
-0.00050 
-0.00050 
0.08550 
0.08550 
0.14300 
0.14300 
0.06400 
0.06400 
0.06550 
0.06550 
0.00350 
0.00350 
0.11900 
0.11900 
0.04800 
0.04800 
0.01050 
0.01050 
0.06850 
0.06850 
0.06650 
0.06650 
-0.00850 
-0.00850 
0.04500 
0.04500 
0.06500 
0.06500 
0.11300 
0.11300 
0.06450 
0.06450 
0.04850 
0.04850 
0.09950 
0.09950 
0.06550 
0.06550 
0.10600 
0.10600 
0.00100 
0.00100 
0.07550 
0.07550 
-0.04100 
-0.04100 
0.06350 
0.06350 
0.02300 
0.02300 
0.19550 
0.19550 
0.01250 
0.01250 
0.11800 
0.11800 
0.01200 
0.01200 
0.02300 
0.02300 
0.00650 
0.00650 
0.05800 
0.05800 
0.03050 
0.03050 
-0.04600 
-0.04600 
0.07150 
0.07150 
-0.03400 
-0.03400 
0.04000 
0.04000 
0.09400 
0.09400 
0.07700 
0.07700 
0.06500 
0.06500 
-0.05600 
-0.05600 
0.00050 
0.00050 
0.13400 
0.13400 
-0.01650 
-0.01650 
-0.00950 
-0.00950 
-0.04650 
-0.04650 
0.04550 
0.04550 
0.15600 
0.15600 
0.11450 
0.11450 
0.00250 
0.00250 
-0.04350 
-0.04350 
-0.00450 
-0.00450 
0.17750 
0.17750 
-0.05750 
-0.05750 
0.04150 
0.04150 
-0.02450 
-0.02450 
-0.01400 
-0.01400 
0.08050 
0.08050 
0.06000 
0.06000 
0.06550 
0.06550 
0.04200 
0.04200 
0.08100 
0.08100 
-0.06450 
-0.06450 
-0.00000 
-0.00000 
0.05350 
0.05350 
0.07350 
0.07350 
-0.00100 
-0.00100 
-0.02550 
-0.02550 
0.12150 
0.12150 
0.00450 
0.00450 
0.01800 
0.01800 
0.01050 
0.01050 
SCALARS Umean_Y double 1 
LOOKUP_TABLE default
0.11850 
0.11850 
0.05700 
0.05700 
0.04300 
0.04300 
0.06550 
0.06550 
0.06050 
0.06050 
0.06250 
0.06250 
0.01050 
0.01050 
-0.00050 
-0.00050 
0.08250 
0.08250 
0.12350 
0.12350 
0.12050 
0.12050 
0.11850 
0.11850 
0.07000 
0.07000 
0.07400 
0.07400 
0.12500 
0.12500 
0.10400 
0.10400 
0.11050 
0.11050 
0.11650 
0.11650 
0.08500 
0.08500 
0.06250 
0.06250 
0.06850 
0.06850 
0.11050 
0.11050 
0.04650 
0.04650 
0.03700 
0.03700 
-0.03700 
-0.03700 
0.15600 
0.15600 
0.21250 
0.21250 
0.13950 
0.13950 
0.15250 
0.15250 
0.14450 
0.14450 
0.14450 
0.14450 
0.11600 
0.11600 
0.01100 
0.01100 
0.17000 
0.17000 
0.14250 
0.14250 
0.10050 
0.10050 
0.07050 
0.07050 
0.05450 
0.05450 
0.00150 
0.00150 
-0.03950 
-0.03950 
0.03800 
0.03800 
0.07300 
0.07300 
0.02900 
0.02900 
0.06200 
0.06200 
0.06900 
0.06900 
0.07350 
0.07350 
0.08350 
0.08350 
0.13050 
0.13050 
0.06000 
0.06000 
0.09450 
0.09450 
0.11700 
0.11700 
0.01650 
0.01650 
0.06800 
0.06800 
0.00850 
0.00850 
0.09450 
0.09450 
0.14400 
0.14400 
0.07950 
0.07950 
0.04950 
0.04950 
0.00400 
0.00400 
0.04100 
0.04100 
-0.05250 
-0.05250 
0.07200 
0.07200 
0.08500 
0.08500 
0.10400 
0.10400 
0.06400 
0.06400 
0.14000 
0.14000 
0.01150 
0.01150 
0.09950 
0.09950 
0.06400 
0.06400 
0.05550 
0.05550 
0.09200 
0.09200 
0.03950 
0.03950 
0.05600 
0.05600 
0.09250 
0.09250 
0.05950 
0.05950 
0.11700 
0.11700 
0.05550 
0.05550 
0.05850 
0.05850 
0.09100 
0.09100 
-0.00800 
-0.00800 
0.02550 
0.02550 
0.00150 
0.00150 
0.12050 
0.12050 
0.06900 
0.06900 
0.10500 
0.10500 
0.07450 
0.07450 
0.08750 
0.08750 
0.15950 
0.15950 
-0.04900 
-0.04900 
0.12450 
0.12450 
-0.03500 
-0.03500 
0.05700 
0.05700 
0.07450 
0.07450 
0.06600 
0.06600 
0.04500 
0.04500 
0.08700 
0.08700 
0.01600 
0.01600 
0.00700 
0.00700 
0.05150 
0.05150 
0.14100 
0.14100 
0.01150 
0.01150 
-0.02950 
-0.02950 
0.10900 
0.10900 
0.02100 
0.02100 