# vtk DataFile Version 2.1 
Trajects from timestep 79 with color option 
ASCII 
 
DATASET POLYDATA POINTS 1024 float 
-5.136 -0.789 -69.904 
-5.136 -0.514 -69.917 
1.949 3.957 -70.305 
1.986 4.254 -70.426 
8.913 1.374 -70.302 
9.052 1.656 -70.484 
9.456 -1.115 -71.222 
9.462 -0.884 -71.202 
-7.666 -2.388 -71.074 
-7.604 -2.233 -70.988 
6.154 5.471 -71.596 
6.133 5.615 -71.633 
5.040 -1.724 -68.861 
5.111 -1.408 -68.985 
3.586 4.658 -70.668 
3.556 4.941 -70.798 
-0.273 4.235 -67.487 
-0.224 4.494 -67.368 
4.600 13.010 -65.510 
4.613 13.321 -65.449 
2.719 6.974 -70.203 
2.843 7.310 -70.228 
-1.701 5.902 -71.895 
-1.648 6.118 -71.850 
9.299 1.921 -70.595 
9.432 2.157 -70.749 
-1.762 1.067 -69.982 
-1.703 1.280 -69.907 
5.979 4.872 -71.719 
6.040 5.072 -71.826 
-8.438 3.024 -73.843 
-8.345 3.079 -73.878 
-1.870 1.130 -75.123 
-1.777 1.232 -75.148 
1.864 6.250 -70.658 
1.938 6.577 -70.622 
4.796 3.153 -70.741 
4.923 3.477 -70.849 
4.344 5.418 -67.847 
4.435 5.710 -67.874 
6.885 0.996 -68.126 
6.891 1.282 -68.327 
5.776 8.834 -71.289 
5.748 8.928 -71.442 
0.477 6.396 -66.376 
0.535 6.757 -66.411 
-8.034 -7.223 -70.741 
-7.959 -6.870 -70.792 
-10.928 1.584 -73.203 
-10.799 1.666 -73.363 
7.563 1.943 -68.280 
7.609 2.177 -68.488 
2.453 -3.198 -74.091 
2.387 -3.002 -74.076 
10.042 2.623 -72.023 
10.149 2.766 -72.263 
-6.580 0.799 -66.967 
-6.474 1.134 -66.913 
-4.578 7.589 -72.973 
-4.575 7.657 -73.041 
4.425 4.247 -68.364 
4.489 4.523 -68.437 
-2.814 11.309 -71.405 
-2.915 11.503 -71.443 
7.954 10.733 -67.917 
7.831 10.780 -67.897 
-9.950 -4.138 -70.058 
-9.947 -3.956 -70.197 
-10.583 -0.768 -75.852 
-10.509 -0.778 -75.810 
-2.003 10.594 -70.509 
-2.093 10.803 -70.586 
10.292 5.112 -66.510 
10.362 5.280 -66.690 
-3.154 6.141 -69.681 
-3.026 6.298 -69.695 
-2.504 -2.590 -73.921 
-2.465 -2.421 -73.931 
0.604 -10.878 -69.717 
0.766 -10.731 -69.950 
0.014 0.272 -65.085 
0.133 0.568 -65.220 
8.267 -6.543 -70.775 
8.561 -6.376 -71.103 
-1.423 4.733 -64.655 
-1.242 5.121 -64.446 
3.350 6.911 -65.732 
3.475 7.182 -65.858 
-2.449 5.941 -74.458 
-2.448 6.043 -74.531 
7.047 8.943 -64.050 
7.082 9.235 -64.004 
-1.963 -11.672 -70.879 
-1.954 -11.497 -70.980 
5.136 -7.095 -67.837 
5.360 -6.946 -67.986 
-4.656 12.342 -73.054 
-4.782 12.483 -73.118 
-7.646 4.798 -67.399 
-7.431 5.047 -67.374 
-15.473 6.002 -70.666 
-15.436 5.987 -70.549 
-2.802 0.015 -69.306 
-2.715 0.179 -69.351 
-15.580 7.680 -74.434 
-15.597 7.817 -74.470 
1.789 1.882 -66.058 
2.025 2.125 -65.980 
5.688 -1.947 -71.761 
5.760 -1.687 -71.960 
-14.115 0.710 -69.492 
-14.085 0.933 -69.612 
6.697 6.546 -66.600 
6.746 6.722 -66.764 
-14.293 8.965 -72.390 
-14.266 9.031 -72.437 
1.261 11.957 -73.869 
1.037 12.040 -73.936 
-6.637 11.849 -73.460 
-6.768 11.961 -73.531 
-8.253 9.222 -64.233 
-8.217 9.481 -64.228 
-4.080 2.646 -73.706 
-3.964 2.803 -73.738 
-0.657 -1.188 -70.829 
-0.589 -0.983 -70.684 
-1.492 -5.900 -68.820 
-1.343 -5.641 -68.923 
-10.637 -2.985 -69.836 
-10.625 -2.871 -69.737 
2.707 4.870 -67.969 
2.677 5.142 -68.012 
2.164 7.091 -61.750 
2.351 7.395 -61.728 
4.773 -12.101 -68.565 
5.006 -12.100 -68.816 
-2.362 10.327 -67.930 
-2.266 10.558 -68.063 
8.160 -4.928 -68.425 
8.208 -4.813 -68.616 
-2.896 7.082 -67.353 
-2.827 7.353 -67.315 
13.708 4.473 -65.841 
13.917 4.615 -65.910 
-2.491 6.087 -66.994 
-2.424 6.274 -66.909 
-8.859 7.182 -66.930 
-8.619 7.409 -66.957 
-0.018 9.206 -73.658 
-0.130 9.284 -73.765 
-7.072 2.532 -65.198 
-7.045 2.846 -65.094 
-4.770 1.772 -61.922 
-4.696 1.965 -61.813 
-5.053 -1.783 -67.822 
-4.995 -1.600 -67.893 
-1.483 -3.327 -73.179 
-1.437 -3.117 -73.212 
-2.262 -2.402 -70.174 
-2.281 -2.219 -70.055 
-2.600 5.227 -63.572 
-2.455 5.524 -63.408 
-7.557 -4.798 -67.739 
-7.390 -4.713 -67.754 
-9.730 10.434 -65.744 
-9.729 10.543 -65.780 
-2.253 -0.312 -64.692 
-2.140 -0.148 -64.735 
8.939 -0.746 -71.706 
8.946 -0.486 -71.772 
-3.982 10.146 -63.298 
-3.958 10.395 -63.469 
2.652 -11.772 -68.910 
2.912 -11.599 -69.116 
-7.872 0.686 -65.970 
-7.831 0.890 -65.941 
-9.326 11.979 -68.647 
-9.218 12.067 -68.800 
11.071 -2.695 -72.911 
11.010 -2.668 -72.946 
5.571 -10.750 -66.764 
5.731 -10.491 -66.894 
-1.796 0.861 -68.462 
-1.737 1.048 -68.376 
1.305 -8.314 -64.794 
1.379 -8.098 -65.027 
-10.030 -3.699 -72.337 
-10.029 -3.397 -72.306 
9.666 -3.457 -67.037 
9.736 -3.373 -67.094 
12.103 6.783 -68.008 
12.148 6.847 -68.020 
-10.869 0.636 -63.572 
-10.939 0.784 -63.760 
-15.320 -1.203 -73.561 
-15.099 -0.941 -73.715 
-10.050 3.477 -71.997 
-9.874 3.599 -71.936 
-4.770 3.163 -63.032 
-4.746 3.319 -62.897 
-3.802 0.140 -71.658 
-3.679 0.432 -71.667 
-5.579 -8.081 -71.483 
-5.510 -7.810 -71.455 
-6.717 0.911 -63.545 
-6.722 1.115 -63.410 
-7.188 -0.775 -64.341 
-7.142 -0.540 -64.505 
-7.732 10.968 -71.032 
-7.680 11.103 -71.047 
-5.998 2.438 -62.155 
-5.982 2.572 -62.007 
5.379 -11.499 -71.818 
5.710 -11.379 -72.150 
-6.176 -1.031 -62.339 
-6.168 -0.911 -62.430 
-5.719 0.505 -67.766 
-5.587 0.826 -67.564 
9.065 7.703 -68.061 
9.176 7.858 -68.084 
5.065 0.774 -67.640 
5.106 1.027 -67.831 
-0.704 10.666 -63.886 
-0.582 10.876 -63.931 
12.091 -1.917 -69.187 
12.204 -1.706 -69.131 
-7.636 8.218 -67.155 
-7.436 8.357 -67.190 
2.853 12.453 -66.742 
2.823 12.748 -66.769 
5.369 -4.343 -66.825 
5.510 -4.134 -67.136 
-9.094 -7.970 -67.813 
-9.093 -7.729 -67.863 
-0.733 2.765 -75.063 
-0.654 2.931 -75.079 
2.819 -9.323 -63.216 
2.836 -9.161 -63.510 
9.753 -11.626 -68.364 
9.907 -11.570 -68.296 
-0.838 -5.210 -63.983 
-0.687 -4.982 -63.969 
6.407 -3.352 -66.188 
6.599 -3.135 -66.543 
9.542 -0.730 -67.136 
9.660 -0.530 -67.386 
7.800 7.263 -72.897 
7.771 7.313 -73.102 
10.679 -1.527 -65.419 
10.770 -1.213 -65.576 
-2.023 -7.277 -70.234 
-1.850 -7.081 -70.435 
-8.409 1.070 -62.177 
-8.555 1.290 -62.299 
1.781 -8.972 -68.758 
1.889 -8.865 -69.053 
-0.071 -5.985 -64.630 
0.088 -5.787 -64.759 
-3.848 -3.553 -61.688 
-3.756 -3.454 -61.894 
0.445 -5.040 -63.778 
0.597 -4.879 -63.988 
1.707 -11.768 -68.214 
1.969 -11.574 -68.366 
-4.076 7.488 -71.387 
-4.046 7.582 -71.471 
6.229 8.054 -66.620 
6.323 8.319 -66.659 
-13.908 -0.020 -67.296 
-13.844 0.393 -67.325 
13.290 3.051 -68.904 
13.405 3.082 -68.922 
-11.794 -7.031 -68.714 
-11.704 -6.787 -68.855 
-10.330 -3.080 -62.965 
-10.182 -2.952 -63.215 
11.092 -3.501 -65.249 
11.135 -3.368 -65.247 
-3.367 -12.244 -67.169 
-3.128 -12.111 -67.360 
1.032 5.971 -73.052 
1.010 6.116 -73.150 
-5.113 9.883 -64.032 
-5.061 10.089 -64.095 
-0.973 -3.671 -66.888 
-0.893 -3.437 -67.047 
-8.497 -0.408 -66.342 
-8.406 -0.228 -66.341 
2.584 -12.775 -69.737 
2.777 -12.701 -70.009 
-0.189 -9.051 -65.872 
-0.048 -8.903 -66.074 
0.840 -4.164 -64.664 
1.072 -3.862 -64.750 
12.309 4.451 -73.873 
12.312 4.616 -73.981 
-5.214 -1.755 -74.632 
-5.151 -1.543 -74.566 
6.358 -6.379 -67.582 
6.580 -6.247 -67.805 
6.803 -8.640 -69.071 
6.925 -8.522 -68.921 
14.942 -0.040 -71.643 
15.017 0.011 -71.756 
-6.339 -8.094 -74.954 
-6.282 -8.039 -75.053 
-4.754 7.552 -69.944 
-4.726 7.726 -69.993 
6.406 -6.499 -64.505 
6.574 -6.324 -64.593 
-7.800 -9.949 -64.080 
-7.699 -9.868 -64.238 
-6.220 -6.605 -75.635 
-6.278 -6.521 -75.693 
5.508 0.210 -62.953 
5.720 0.406 -62.990 
-10.748 7.298 -65.993 
-10.637 7.533 -65.913 
5.993 8.482 -63.475 
6.072 8.805 -63.460 
-11.900 10.356 -71.063 
-11.760 10.461 -71.015 
11.032 -2.060 -67.613 
11.081 -1.964 -67.654 
-11.742 10.977 -65.588 
-11.668 11.002 -65.614 
5.967 1.466 -68.139 
5.944 1.720 -68.324 
-7.320 2.842 -71.331 
-7.234 2.910 -71.295 
-2.832 -0.652 -64.581 
-2.770 -0.420 -64.639 
-10.724 -4.349 -65.909 
-10.602 -4.180 -66.178 
5.185 8.541 -61.403 
5.230 8.878 -61.507 
8.480 -11.593 -69.024 
8.587 -11.493 -68.910 
12.426 -2.585 -72.108 
12.433 -2.502 -72.195 
-12.993 8.105 -70.759 
-12.873 8.212 -70.580 
-4.091 5.209 -66.363 
-4.055 5.393 -66.370 
-8.404 8.829 -66.606 
-8.284 9.009 -66.617 
13.611 5.160 -74.902 
13.624 5.208 -75.062 
-6.077 -7.183 -60.338 
-6.024 -7.004 -60.308 
-12.700 12.121 -73.223 
-12.590 12.162 -73.234 
-8.706 -4.611 -64.148 
-8.623 -4.416 -64.310 
-12.210 -1.282 -74.368 
-12.231 -1.206 -74.474 
-6.219 7.423 -68.671 
-6.122 7.689 -68.668 
10.108 4.908 -62.964 
10.302 5.245 -63.209 
9.876 1.213 -70.952 
10.119 1.497 -71.148 
-3.201 -0.851 -70.665 
-3.089 -0.665 -70.735 
4.252 -5.705 -73.302 
4.143 -5.479 -73.178 
0.256 -10.579 -73.439 
0.371 -10.360 -73.500 
7.277 8.695 -73.571 
7.195 8.800 -73.738 
1.679 4.800 -74.455 
1.772 4.933 -74.574 
-14.162 10.769 -76.834 
-14.197 10.809 -76.906 
5.634 7.039 -75.914 
5.572 7.036 -76.032 
-2.022 1.034 -64.373 
-1.857 1.170 -64.303 
15.900 6.889 -68.480 
15.911 7.031 -68.530 
11.159 -9.348 -67.075 
11.328 -9.141 -67.074 
-3.976 3.392 -67.184 
-3.858 3.580 -67.123 
14.273 -1.217 -72.294 
14.263 -1.207 -72.376 
11.484 1.442 -63.431 
11.547 1.671 -63.477 
4.013 9.397 -66.896 
4.031 9.624 -66.873 
-12.405 -3.252 -65.082 
-12.297 -3.122 -65.247 
-4.888 -9.997 -68.981 
-4.922 -9.755 -69.060 
3.620 -10.929 -67.847 
3.811 -10.906 -68.152 
10.032 3.877 -69.233 
10.161 4.021 -69.429 
-1.592 9.492 -74.032 
-1.674 9.614 -74.152 
-3.698 -7.570 -67.902 
-3.512 -7.350 -68.053 
-1.914 -7.494 -68.758 
-1.740 -7.237 -68.944 
-9.284 3.531 -75.406 
-9.237 3.638 -75.413 
-2.459 9.349 -66.042 
-2.383 9.721 -66.120 
-11.928 -2.676 -65.323 
-11.841 -2.516 -65.555 
11.732 -5.967 -70.940 
11.796 -5.869 -70.885 
-5.988 -1.063 -75.317 
-5.987 -0.883 -75.273 
2.572 -12.098 -71.784 
2.756 -11.837 -71.845 
2.610 0.269 -68.908 
2.727 0.645 -68.937 
16.711 -6.232 -76.029 
16.616 -6.138 -76.136 
-1.580 -11.370 -65.043 
-1.408 -11.168 -65.240 
3.441 -3.135 -65.297 
3.632 -2.876 -65.482 
-11.189 2.601 -71.976 
-11.158 2.637 -72.081 
-13.132 12.757 -66.735 
-13.054 12.783 -66.715 
6.895 -7.375 -64.463 
6.934 -7.306 -64.507 
1.117 -4.650 -71.369 
1.172 -4.416 -71.527 
8.488 9.416 -71.706 
8.423 9.540 -71.905 
8.125 -8.316 -64.498 
8.141 -8.126 -64.510 
-0.713 2.311 -71.853 
-0.560 2.529 -71.824 
4.874 3.706 -63.629 
5.066 4.046 -63.735 
-5.742 -12.289 -66.200 
-5.525 -12.242 -66.305 
[...]
POINT_DATA 1024 
SCALARS Umean double 1 
LOOKUP_TABLE default
0.13765 
0.13765 
0.16141 
0.16141 
0.18164 
0.18164 
0.11597 
0.11597 
0.09389 
0.09389 
0.07508 
0.07508 
0.17340 
0.17340 
0.15644 
0.15644 
0.14461 
0.14461 
0.15860 
0.15860 
0.17951 
0.17951 
0.11346 
0.11346 
0.15581 
0.15581 
0.11670 
0.11670 
0.11744 
0.11744 
0.05679 
0.05679 
0.07014 
0.07014 
0.16860 
0.16860 
0.18219 
0.18219 
0.15352 
0.15352 
0.17481 
0.17481 
0.09087 
0.09087 
0.18365 
0.18365 
0.18223 
0.18223 
0.11064 
0.11064 
0.15822 
0.15822 
0.10368 
0.10368 
0.14958 
0.14958 
0.17775 
0.17775 
0.04811 
0.04811 
0.14629 
0.14629 
0.11100 
0.11100 
0.06659 
0.06659 
0.11451 
0.11451 
0.04284 
0.04284 
0.12011 
0.12011 
0.12799 
0.12799 
0.10152 
0.10152 
0.08686 
0.08686 
0.15980 
0.15980 
0.17321 
0.17321 
0.23554 
0.23554 
0.23822 
0.23822 
0.16197 
0.16197 
0.06272 
0.06272 
0.14883 
0.14883 
0.10113 
0.10113 
0.15377 
0.15377 
0.09982 
0.09982 
0.16496 
0.16496 
0.06181 
0.06181 
0.09551 
0.09551 
0.07133 
0.07133 
0.17380 
0.17380 
0.16762 
0.16762 
0.12750 
0.12750 
0.12275 
0.12275 
0.04270 
0.04270 
0.12405 
0.12405 
0.09320 
0.09320 
0.13077 
0.13077 
0.09891 
0.09891 
0.13007 
0.13007 
0.15803 
0.15803 
0.07573 
0.07573 
0.13850 
0.13850 
0.17879 
0.17879 
0.17124 
0.17124 
0.14166 
0.14166 
0.11403 
0.11403 
0.14111 
0.14111 
0.13096 
0.13096 
0.10803 
0.10803 
0.16572 
0.16572 
0.08671 
0.08671 
0.16594 
0.16594 
0.11684 
0.11684 
0.10234 
0.10234 
0.10875 
0.10875 
0.10956 
0.10956 
0.18448 
0.18448 
0.09399 
0.09399 
0.05740 
0.05740 
0.10187 
0.10187 
0.13417 
0.13417 
0.15151 
0.15151 
0.18706 
0.18706 
0.10505 
0.10505 
0.10346 
0.10346 
0.03767 
0.03767 
0.16552 
0.16552 
0.10706 
0.10706 
0.16311 
0.16311 
0.15179 
0.15179 
0.06165 
0.06165 
0.03958 
0.03958 
0.12465 
0.12465 
0.18788 
0.18788 
0.11133 
0.11133 
0.10385 
0.10385 
0.15849 
0.15849 
0.14052 
0.14052 
0.12234 
0.12234 
0.14512 
0.14512 
0.07272 
0.07272 
0.10014 
0.10014 
0.24196 
0.24196 
0.07541 
0.07541 
0.20079 
0.20079 
0.09601 
0.09601 
0.15982 
0.15982 
0.12350 
0.12350 
0.12291 
0.12291 
0.12303 
0.12303 
0.14887 
0.14887 
0.20018 
0.20018 
0.12307 
0.12307 
0.09227 
0.09227 
0.16805 
0.16805 
0.08871 
0.08871 
0.13691 
0.13691 
0.22912 
0.22912 
0.17060 
0.17060 
0.10650 
0.10650 
0.18133 
0.18133 
0.16488 
0.16488 
0.14543 
0.14543 
0.16594 
0.16594 
0.14241 
0.14241 
0.12319 
0.12319 
0.15258 
0.15258 
0.17985 
0.17985 
0.06479 
0.06479 
0.14193 
0.14193 
0.20947 
0.20947 
0.06023 
0.06023 
0.14792 
0.14792 
0.15874 
0.15874 
0.06990 
0.06990 
0.16680 
0.16680 
0.08819 
0.08819 
0.11080 
0.11080 
0.14700 
0.14700 
0.10085 
0.10085 
0.17081 
0.17081 
0.14369 
0.14369 
0.19521 
0.19521 
0.09861 
0.09861 
0.11540 
0.11540 
0.17061 
0.17061 
0.11326 
0.11326 
0.07245 
0.07245 
0.06339 
0.06339 
0.09146 
0.09146 
0.12903 
0.12903 
0.10213 
0.10213 
0.05870 
0.05870 
0.14554 
0.14554 
0.13597 
0.13597 
0.16643 
0.16643 
0.09073 
0.09073 
0.05766 
0.05766 
0.04116 
0.04116 
0.15754 
0.15754 
0.05770 
0.05770 
0.12352 
0.12352 
0.17015 
0.17015 
0.17777 
0.17777 
0.09280 
0.09280 
0.06022 
0.06022 
0.12030 
0.12030 
0.09381 
0.09381 
0.10831 
0.10831 
0.08377 
0.08377 
0.09454 
0.09454 
0.05895 
0.05895 
0.13338 
0.13338 
0.06605 
0.06605 
0.14158 
0.14158 
0.22980 
0.22980 
0.21102 
0.21102 
0.11406 
0.11406 
0.13994 
0.13994 
0.12738 
0.12738 
0.10682 
0.10682 
0.10062 
0.10062 
0.04475 
0.04475 
0.06667 
0.06667 
0.11250 
0.11250 
0.07547 
0.07547 
0.13361 
0.13361 
0.11510 
0.11510 
0.04161 
0.04161 
0.12096 
0.12096 
0.11444 
0.11444 
0.11810 
0.11810 
0.12841 
0.12841 
0.18030 
0.18030 
0.13765 
0.13765 
0.09488 
0.09488 
0.16263 
0.16263 
0.18092 
0.18092 
0.05854 
0.05854 
0.19381 
0.19381 
0.14747 
0.14747 
0.06466 
0.06466 
0.09265 
0.09265 
0.16256 
0.16256 
0.19742 
0.19742 
0.08560 
0.08560 
0.16522 
0.16522 
0.18560 
0.18560 
0.05762 
0.05762 
0.04231 
0.04231 
0.04533 
0.04533 
0.14383 
0.14383 
0.12166 
0.12166 
0.09552 
0.09552 
0.13395 
0.13395 
0.20230 
0.20230 
0.12280 
0.12280 
0.10384 
0.10384 
0.08206 
0.08206 
0.11083 
0.11083 
0.14227 
0.14227 
0.15323 
0.15323 
0.10664 
0.10664 
0.03293 
0.03293 
0.07496 
0.07496 
0.01573 
0.01573 
0.11782 
0.11782 
0.19247 
0.19247 
0.05656 
0.05656 
0.10478 
0.10478 
0.14599 
0.14599 
0.07314 
0.07314 
0.09989 
0.09989 
0.11366 
0.11366 
0.17726 
0.17726 
0.05938 
0.05938 
0.15507 
0.15507 
0.10692 
0.10692 
0.11671 
0.11671 
0.09861 
0.09861 
0.07797 
0.07797 
0.06169 
0.06169 
0.08239 
0.08239 
0.03190 
0.03190 
0.15120 
0.15120 
0.10187 
0.10187 
0.13239 
0.13239 
0.11354 
0.11354 
0.12048 
0.12048 
0.03270 
0.03270 
0.07235 
0.07235 
0.10991 
0.10991 
0.06415 
0.06415 
0.14638 
0.14638 
0.13382 
0.13382 
0.07580 
0.07580 
0.02483 
0.02483 
0.04878 
0.04878 
0.18900 
0.18900 
0.13516 
0.13516 
0.08642 
0.08642 
0.16489 
0.16489 
0.05621 
0.05621 
0.08349 
0.08349 
0.16050 
0.16050 
0.06467 
0.06467 
0.12866 
0.12866 
0.18361 
0.18361 
0.08646 
0.08646 
0.04553 
0.04553 
0.15126 
0.15126 
0.07044 
0.07044 
0.06038 
0.06038 
0.06145 
0.06145 
0.05094 
0.05094 
0.09813 
0.09813 
0.12673 
0.12673 
0.05674 
0.05674 
0.05140 
0.05140 
0.08013 
0.08013 
0.12542 
0.12542 
0.18279 
0.18279 
0.04194 
0.04194 
0.20175 
0.20175 
0.12142 
0.12142 
0.02141 
0.02141 
0.14262 
0.14262 
0.04345 
0.04345 
0.15507 
0.15507 
0.18800 
0.18800 
0.20035 
0.20035 
0.11570 
0.11570 
0.14893 
0.14893 
0.15067 
0.15067 
0.27322 
0.27322 
0.10087 
0.10087 
0.11812 
0.11812 
0.13493 
0.13493 
0.09739 
0.09739 
0.15960 
0.15960 
0.11778 
0.11778 
0.07321 
0.07321 
0.07868 
0.07868 
0.11578 
0.11578 
0.14901 
0.14901 
0.10986 
0.10986 
0.08759 
0.08759 
0.06302 
0.06302 
0.13779 
0.13779 
0.13061 
0.13061 
0.09381 
0.09381 
0.09589 
0.09589 
0.13484 
0.13484 
0.09777 
0.09777 
0.05070 
0.05070 
0.16232 
0.16232 
0.13460 
0.13460 
0.11546 
0.11546 
0.09774 
0.09774 
0.10116 
0.10116 
0.14803 
0.14803 
0.07261 
0.07261 
0.13430 
0.13430 
0.11491 
0.11491 
0.11390 
0.11390 
0.15048 
0.15048 
0.07860 
0.07860 
0.11804 
0.11804 
0.06314 
0.06314 
0.07987 
0.07987 
0.09250 
0.09250 
0.12665 
0.12665 
0.12989 
0.12989 
0.09789 
0.09789 
0.21411 
0.21411 
0.12527 
0.12527 
0.13436 
0.13436 
0.10095 
0.10095 
0.09220 
0.09220 
0.11450 
0.11450 
0.13698 
0.13698 
0.12295 
0.12295 
0.15845 
0.15845 
0.11579 
0.11579 
0.09049 
0.09049 
0.16182 
0.16182 
0.10573 
0.10573 
0.15233 
0.15233 
0.13466 
0.13466 
0.12449 
0.12449 
0.16088 
0.16088 
0.07760 
0.07760 
0.10275 
0.10275 
0.09784 
0.09784 
0.17621 
0.17621 
0.09525 
0.09525 
0.08090 
0.08090 
0.10150 
0.10150 
0.22096 
0.22096 
0.12295 
0.12295 
0.08593 
0.08593 
0.05638 
0.05638 
0.13384 
0.13384 
0.20117 
0.20117 
0.15128 
0.15128 
0.12652 
0.12652 
0.14942 
0.14942 
0.09383 
0.09383 
0.14486 
0.14486 
0.09033 
0.09033 
0.11986 
0.11986 
0.08814 
0.08814 
0.18222 
0.18222 
0.13657 
0.13657 
0.14725 
0.14725 
0.11495 
0.11495 
0.14552 
0.14552 
0.03163 
0.03163 
0.12143 
0.12143 
0.11492 
0.11492 
0.08584 
0.08584 
0.07009 
0.07009 
0.13856 
0.13856 
0.12720 
0.12720 
0.08468 
0.08468 
0.08901 
0.08901 
0.10576 
0.10576 
0.20312 
0.20312 
0.14658 
0.14658 
0.08990 
0.08990 
0.18602 
0.18602 
0.08582 
0.08582 
0.09778 
0.09778 
0.17881 
0.17881 
0.11854 
0.11854 
0.07263 
0.07263 
0.10796 
0.10796 
0.15785 
0.15785 
0.08278 
0.08278 
0.06349 
0.06349 
0.07050 
0.07050 
0.05209 
0.05209 
0.10755 
0.10755 
0.09122 
0.09122 
0.14535 
0.14535 
0.06059 
0.06059 
0.08163 
0.08163 
0.15370 
0.15370 
0.13004 
0.13004 
0.13598 
0.13598 
0.06550 
0.06550 
0.13405 
0.13405 
0.17934 
0.17934 
0.19359 
0.19359 
0.15200 
0.15200 
0.12887 
0.12887 
0.19227 
0.19227 
0.11826 
0.11826 
0.10890 
0.10890 
0.17455 
0.17455 
0.12001 
0.12001 
0.13198 
0.13198 
0.10999 
0.10999 
0.10559 
0.10559 
0.16094 
0.16094 
0.07981 
0.07981 
0.06064 
0.06064 
0.16963 
0.16963 
0.07232 
0.07232 
0.10361 
0.10361 
0.09860 
0.09860 
0.17559 
0.17559 
0.08247 
0.08247 
0.11473 
0.11473 
0.20631 
0.20631 
0.06629 
0.06629 
0.08633 
0.08633 
0.17223 
0.17223 
0.16801 
0.16801 
0.06667 
0.06667 
0.04100 
0.04100 
0.09435 
0.09435 
0.11082 
0.11082 
0.24229 
0.24229 
0.05544 
0.05544 
0.19432 
0.19432 
0.12586 
0.12586 
0.04770 
0.04770 
0.14092 
0.14092 
0.06958 
0.06958 
0.13923 
0.13923 
0.05430 
0.05430 
0.10705 
0.10705 
0.07796 
0.07796 
0.12572 
0.12572 
0.19081 
0.19081 
0.05231 
0.05231 
0.13586 
0.13586 
0.09989 
0.09989 
0.06881 
0.06881 
0.19618 
0.19618 
0.04441 
0.04441 
0.14466 
0.14466 
0.10534 
0.10534 
0.09617 
0.09617 
0.13239 
0.13239 
0.04435 
0.04435 
0.16581 
0.16581 
0.17455 
0.17455 
0.18794 
0.18794 
0.14139 
0.14139 
0.09012 
0.09012 
0.06055 
0.06055 
0.13491 
0.13491 
0.16231 
0.16231 
0.14257 
0.14257 
0.03808 
0.03808 
0.10275 
0.10275 
0.19470 
0.19470 
0.07727 
0.07727 
0.12710 
0.12710 
0.06604 
0.06604 
0.14255 
0.14255 
0.16892 
0.16892 
0.13971 
0.13971 
0.08810 
0.08810 
0.11422 
0.11422 
0.07105 
0.07105 
0.18449 
0.18449 
0.09755 
0.09755 
0.11130 
0.11130 
0.12228 
0.12228 
0.15469 
0.15469 
0.10060 
0.10060 
0.21363 
0.21363 
0.14287 
0.14287 
0.10920 
0.10920 
0.18091 
0.18091 
0.07040 
0.07040 
0.19214 
0.19214 
0.15923 
0.15923 
0.08599 
0.08599 
0.17898 
0.17898 
0.18061 
0.18061 
0.07353 
0.07353 
0.12057 
0.12057 
0.07111 
0.07111 
0.09155 
0.09155 
SCALARS Umean_X double 1 
LOOKUP_TABLE default
-0.00000 
-0.00000 
0.01850 
0.01850 
0.06950 
0.06950 
0.00300 
0.00300 
0.03100 
0.03100 
-0.01050 
-0.01050 
0.03550 
0.03550 
-0.01500 
-0.01500 
0.02450 
0.02450 
0.00650 
0.00650 
0.06200 
0.06200 
0.02650 
0.02650 
0.06650 
0.06650 
0.02950 
0.02950 
0.03050 
0.03050 
0.04650 
0.04650 
0.04650 
0.04650 
0.03700 
0.03700 
0.06350 
0.06350 
0.04550 
0.04550 
0.00300 
0.00300 
-0.01400 
-0.01400 
0.02900 
0.02900 
0.03750 
0.03750 
0.06450 
0.06450 
0.02300 
0.02300 
-0.03300 
-0.03300 
0.05350 
0.05350 
0.05300 
0.05300 
0.00150 
0.00150 
0.03200 
0.03200 
-0.05050 
-0.05050 
-0.06150 
-0.06150 
0.00150 
0.00150 
0.03700 
0.03700 
-0.04500 
-0.04500 
0.03500 
0.03500 
0.06400 
0.06400 
0.01950 
0.01950 
0.08100 
0.08100 
0.05950 
0.05950 
0.14700 
0.14700 
0.09050 
0.09050 
0.06250 
0.06250 
0.00050 
0.00050 
0.01750 
0.01750 
0.00450 
0.00450 
0.11200 
0.11200 
-0.06300 
-0.06300 
0.10750 
0.10750 
0.01850 
0.01850 
0.04350 
0.04350 
-0.00850 
-0.00850 
0.11800 
0.11800 
0.03600 
0.03600 
0.01500 
0.01500 
0.02450 
0.02450 
0.01350 
0.01350 
-0.11200 
-0.11200 
-0.06550 
-0.06550 
0.01800 
0.01800 
0.05800 
0.05800 
0.03400 
0.03400 
0.07450 
0.07450 
0.00600 
0.00600 
-0.01500 
-0.01500 
0.09350 
0.09350 
0.11650 
0.11650 
0.04800 
0.04800 
0.02400 
0.02400 
0.03450 
0.03450 
0.10450 
0.10450 
0.03350 
0.03350 
0.12000 
0.12000 
-0.05600 
-0.05600 
0.01350 
0.01350 
0.03700 
0.03700 
0.02900 
0.02900 
0.02300 
0.02300 
-0.00950 
-0.00950 
0.07250 
0.07250 
0.08350 
0.08350 
0.00050 
0.00050 
0.05650 
0.05650 
0.00350 
0.00350 
0.01200 
0.01200 
0.13000 
0.13000 
0.02050 
0.02050 
0.05400 
0.05400 
-0.03050 
-0.03050 
0.08000 
0.08000 
0.02950 
0.02950 
0.03700 
0.03700 
0.00050 
0.00050 
0.03500 
0.03500 
0.02250 
0.02250 
-0.03500 
-0.03500 
0.11050 
0.11050 
0.08800 
0.08800 
0.01200 
0.01200 
0.06150 
0.06150 
0.03450 
0.03450 
-0.00250 
-0.00250 
0.02300 
0.02300 
0.02600 
0.02600 
0.00800 
0.00800 
0.16550 
0.16550 
0.00400 
0.00400 
0.06600 
0.06600 
0.05550 
0.05550 
0.02050 
0.02050 
0.06100 
0.06100 
0.05650 
0.05650 
0.10000 
0.10000 
-0.01500 
-0.01500 
0.07050 
0.07050 
0.00050 
0.00050 
0.03950 
0.03950 
0.00850 
0.00850 
0.07700 
0.07700 
0.07550 
0.07550 
0.09600 
0.09600 
0.05900 
0.05900 
-0.01450 
-0.01450 
0.04550 
0.04550 
0.08650 
0.08650 
-0.07300 
-0.07300 
0.05400 
0.05400 
0.07950 
0.07950 
0.04600 
0.04600 
0.07600 
0.07600 
0.13100 
0.13100 
0.01500 
0.01500 
0.04700 
0.04700 
0.03200 
0.03200 
0.05750 
0.05750 
0.04500 
0.04500 
0.07400 
0.07400 
0.02150 
0.02150 
0.11950 
0.11950 
-0.01100 
-0.01100 
0.02600 
0.02600 
0.04000 
0.04000 
0.04550 
0.04550 
0.09650 
0.09650 
0.07050 
0.07050 
0.11600 
0.11600 
0.00150 
0.00150 
0.03150 
0.03150 
0.11100 
0.11100 
0.06100 
0.06100 
0.03750 
0.03750 
0.02850 
0.02850 
0.01400 
0.01400 
0.08400 
0.08400 
0.05050 
0.05050 
-0.02900 
-0.02900 
0.10600 
0.10600 
0.05550 
0.05550 
0.03950 
0.03950 
0.07000 
0.07000 
0.02450 
0.02450 
0.03700 
0.03700 
-0.01150 
-0.01150 
0.04300 
0.04300 
0.03100 
0.03100 
0.06100 
0.06100 
0.02250 
0.02250 
0.05350 
0.05350 
0.00350 
0.00350 
0.06000 
0.06000 
0.01800 
0.01800 
0.06000 
0.06000 
0.00650 
0.00650 
0.02650 
0.02650 
0.05500 
0.05500 
0.04150 
0.04150 
-0.01050 
-0.01050 
0.04850 
0.04850 
0.09700 
0.09700 
0.12150 
0.12150 
0.05600 
0.05600 
-0.05450 
-0.05450 
0.05750 
0.05750 
-0.04100 
-0.04100 
0.04650 
0.04650 
-0.01750 
-0.01750 
-0.03100 
-0.03100 
0.08250 
0.08250 
0.00550 
0.00550 
0.08450 
0.08450 
0.05900 
0.05900 
-0.00500 
-0.00500 
0.03150 
0.03150 
0.00900 
0.00900 
0.05400 
0.05400 
-0.01700 
-0.01700 
0.09550 
0.09550 
0.06450 
0.06450 
-0.04100 
-0.04100 
0.09300 
0.09300 
0.08700 
0.08700 
0.02350 
0.02350 
0.03800 
0.03800 
0.04350 
0.04350 
0.03200 
0.03200 
0.00050 
0.00050 
0.09200 
0.09200 
0.05850 
0.05850 
-0.04750 
-0.04750 
0.08600 
0.08600 
0.09550 
0.09550 
0.01550 
0.01550 
0.03900 
0.03900 
0.01950 
0.01950 
0.02750 
0.02750 
-0.03250 
-0.03250 
0.00800 
0.00800 
0.07650 
0.07650 
0.09600 
0.09600 
0.10850 
0.10850 
-0.00800 
-0.00800 
0.05300 
0.05300 
0.01350 
0.01350 
0.03550 
0.03550 
-0.03850 
-0.03850 
0.01100 
0.01100 
0.02050 
0.02050 
-0.00950 
-0.00950 
0.00650 
0.00650 
0.10550 
0.10550 
0.01550 
0.01550 
0.00650 
0.00650 
0.08300 
0.08300 
0.02950 
0.02950 
0.02850 
0.02850 
0.03750 
0.03750 
-0.02150 
-0.02150 
0.09250 
0.09250 
0.03350 
0.03350 
0.00900 
0.00900 
-0.01650 
-0.01650 
0.00100 
0.00100 
0.02750 
0.02750 
-0.04750 
-0.04750 
0.01900 
0.01900 
-0.03150 
-0.03150 
0.01250 
0.01250 
0.08050 
0.08050 
0.02150 
0.02150 
0.06000 
0.06000 
0.07650 
0.07650 
-0.00250 
-0.00250 
-0.02950 
-0.02950 
0.03300 
0.03300 
-0.03150 
-0.03150 
-0.00900 
-0.00900 
0.02550 
0.02550 
0.04450 
0.04450 
0.03300 
0.03300 
-0.01850 
-0.01850 
0.01050 
0.01050 
0.02950 
0.02950 
0.06750 
0.06750 
0.06350 
0.06350 
0.07950 
0.07950 
-0.02450 
-0.02450 
0.00200 
0.00200 
0.07950 
0.07950 
0.01550 
0.01550 
0.01400 
0.01400 
-0.03050 
-0.03050 
-0.04000 
-0.04000 
0.03500 
0.03500 
0.09600 
0.09600 
0.04850 
0.04850 
-0.00700 
-0.00700 
0.02000 
0.02000 
-0.01000 
-0.01000 
0.07650 
0.07650 
0.10400 
0.10400 
-0.02700 
-0.02700 
0.04600 
0.04600 
0.01400 
0.01400 
0.00650 
0.00650 
0.13000 
0.13000 
0.01050 
0.01050 
0.09750 
0.09750 
0.10900 
0.10900 
0.02000 
0.02000 
0.10250 
0.10250 
0.02750 
0.02750 
-0.07550 
-0.07550 
0.08000 
0.08000 
0.08700 
0.08700 
0.08250 
0.08250 
0.06450 
0.06450 
0.03850 
0.03850 
0.10350 
0.10350 
0.03150 
0.03150 
0.04900 
0.04900 
0.11800 
0.11800 
-0.02300 
-0.02300 
0.04600 
0.04600 
0.06000 
0.06000 
-0.02000 
-0.02000 
0.02050 
0.02050 
-0.03600 
-0.03600 
0.10900 
0.10900 
0.08700 
0.08700 
0.02550 
0.02550 
-0.00500 
-0.00500 
0.07450 
0.07450 
0.11800 
0.11800 
-0.05550 
-0.05550 
0.04750 
0.04750 
0.00800 
0.00800 
0.00200 
0.00200 
0.04000 
0.04000 
0.06350 
0.06350 
-0.00400 
-0.00400 
0.09100 
0.09100 
-0.04600 
-0.04600 
0.00900 
0.00900 
0.04800 
0.04800 
0.02350 
0.02350 
-0.04750 
-0.04750 
0.02350 
0.02350 
-0.00550 
-0.00550 
0.14300 
0.14300 
-0.04400 
-0.04400 
0.01900 
0.01900 
-0.05050 
-0.05050 
-0.03850 
-0.03850 
0.05050 
0.05050 
0.03000 
0.03000 
-0.10850 
-0.10850 
0.00150 
0.00150 
-0.04300 
-0.04300 
-0.00650 
-0.00650 
0.11400 
0.11400 
-0.04600 
-0.04600 
0.09150 
0.09150 
0.05700 
0.05700 
0.09800 
0.09800 
-0.03600 
-0.03600 
0.04450 
0.04450 
0.09500 
0.09500 
0.05100 
0.05100 
0.10350 
0.10350 
0.06200 
0.06200 
0.09800 
0.09800 
0.04450 
0.04450 
0.01850 
0.01850 
0.07950 
0.07950 
0.06550 
0.06550 
0.03500 
0.03500 
0.08300 
0.08300 
0.12650 
0.12650 
0.02450 
0.02450 
0.05950 
0.05950 
-0.06150 
-0.06150 
0.07200 
0.07200 
0.06200 
0.06200 
-0.04400 
-0.04400 
0.02950 
0.02950 
0.09050 
0.09050 
0.09650 
0.09650 
-0.01150 
-0.01150 
-0.00650 
-0.00650 
-0.01550 
-0.01550 
-0.03100 
-0.03100 
0.05450 
0.05450 
-0.01350 
-0.01350 
0.10100 
0.10100 
0.02300 
0.02300 
0.15500 
0.15500 
-0.10550 
-0.10550 
0.01400 
0.01400 
0.02150 
0.02150 
0.09400 
0.09400 
0.00050 
0.00050 
-0.02150 
-0.02150 
0.03700 
0.03700 
0.03300 
0.03300 
0.02100 
0.02100 
0.05750 
0.05750 
-0.07600 
-0.07600 
-0.00600 
-0.00600 
0.02250 
0.02250 
0.02750 
0.02750 
0.09800 
0.09800 
0.09100 
0.09100 
-0.02450 
-0.02450 
-0.13600 
-0.13600 
-0.00800 
-0.00800 
0.08950 
0.08950 
-0.00450 
-0.00450 
0.04750 
0.04750 
0.03600 
0.03600 
-0.00000 
-0.00000 
-0.02300 
-0.02300 
0.02550 
0.02550 
0.05950 
0.05950 
-0.02000 
-0.02000 
0.01250 
0.01250 
0.02950 
0.02950 
-0.04850 
-0.04850 
0.07200 
0.07200 
0.05100 
0.05100 
-0.07750 
-0.07750 
0.11250 
0.11250 
0.05200 
0.05200 
0.07100 
0.07100 
0.01550 
0.01550 
0.05600 
0.05600 
0.07900 
0.07900 
0.13000 
0.13000 
0.08100 
0.08100 
0.02500 
0.02500 
0.08450 
0.08450 
0.02050 
0.02050 
0.03700 
0.03700 
0.13800 
0.13800 
0.08550 
0.08550 
0.01250 
0.01250 
-0.01800 
-0.01800 
-0.00650 
-0.00650 
0.07250 
0.07250 
0.06300 
0.06300 
-0.02350 
-0.02350 
0.08800 
0.08800 
0.03000 
0.03000 
0.01700 
0.01700 
0.02450 
0.02450 
0.07350 
0.07350 
-0.04750 
-0.04750 
0.10350 
0.10350 
0.10700 
0.10700 
0.04450 
0.04450 
0.07150 
0.07150 
0.10850 
0.10850 
0.03300 
0.03300 
0.00350 
0.00350 
0.02950 
0.02950 
0.05550 
0.05550 
0.10150 
0.10150 
0.01400 
0.01400 
0.03650 
0.03650 
0.09850 
0.09850 
0.01950 
0.01950 
-0.02300 
-0.02300 
0.09250 
0.09250 
-0.00500 
-0.00500 
-0.04700 
-0.04700 
0.00050 
0.00050 
0.01450 
0.01450 
-0.03950 
-0.03950 
0.06400 
0.06400 
0.12850 
0.12850 
0.02750 
0.02750 
-0.02500 
-0.02500 
0.01550 
0.01550 
0.03050 
0.03050 
0.11300 
0.11300 
0.01250 
0.01250 
-0.02050 
-0.02050 
0.04400 
0.04400 
0.00450 
0.00450 
0.06750 
0.06750 
0.03950 
0.03950 
0.12200 
0.12200 
0.08000 
0.08000 
0.07900 
0.07900 
0.05500 
0.05500 
0.06100 
0.06100 
0.00600 
0.00600 
0.10000 
0.10000 
0.03500 
0.03500 
0.03500 
0.03500 
0.01300 
0.01300 
-0.00750 
-0.00750 
0.07500 
0.07500 
-0.00500 
-0.00500 
0.10400 
0.10400 
0.03400 
0.03400 
0.07500 
0.07500 
0.04200 
0.04200 
0.01750 
0.01750 
0.04350 
0.04350 
0.02800 
0.02800 
-0.00700 
-0.00700 
0.10800 
0.10800 
0.00150 
0.00150 
0.06750 
0.06750 
0.05800 
0.05800 
0.12550 
0.12550 
0.09300 
0.09300 
0.01950 
0.01950 
0.02100 
0.02100 
0.10650 
0.10650 
0.11100 
0.11100 
0.06850 
0.06850 
0.13300 
0.13300 
-0.11450 
-0.11450 
0.03350 
0.03350 
0.12500 
0.12500 
0.06350 
0.06350 
-0.02600 
-0.02600 
0.02900 
0.02900 
-0.01850 
-0.01850 
-0.04700 
-0.04700 
SCALARS Umean_Y double 1 
LOOKUP_TABLE default
0.13750 
0.13750 
0.14850 
0.14850 
0.14100 
0.14100 
0.11550 
0.11550 
0.07750 
0.07750 
0.07200 
0.07200 
0.15800 
0.15800 
0.14150 
0.14150 
0.12950 
0.12950 
0.15550 
0.15550 
0.16800 
0.16800 
0.10800 
0.10800 
0.11800 
0.11800 
0.10650 
0.10650 
0.10000 
0.10000 
0.02750 
0.02750 
0.05100 
0.05100 
0.16350 
0.16350 
0.16200 
0.16200 
0.14600 
0.14600 
0.14300 
0.14300 
0.04700 
0.04700 
0.18050 
0.18050 
0.17650 
0.17650 
0.04100 
0.04100 
0.11700 
0.11700 
0.09800 
0.09800 
0.07150 
0.07150 
0.16750 
0.16750 
0.03400 
0.03400 
0.13800 
0.13800 
0.09700 
0.09700 
0.02350 
0.02350 
0.09100 
0.09100 
-0.00500 
-0.00500 
0.10450 
0.10450 
0.08400 
0.08400 
0.07850 
0.07850 
0.08450 
0.08450 
0.07350 
0.07350 
0.14800 
0.14800 
0.08350 
0.08350 
0.19400 
0.19400 
0.13550 
0.13550 
0.05100 
0.05100 
0.14600 
0.14600 
0.08750 
0.08750 
0.07450 
0.07450 
0.07050 
0.07050 
0.12450 
0.12450 
-0.00750 
-0.00750 
0.08200 
0.08200 
0.06850 
0.06850 
0.12150 
0.12150 
0.13000 
0.13000 
0.11150 
0.11150 
0.08800 
0.08800 
0.03300 
0.03300 
0.04150 
0.04150 
0.05600 
0.05600 
0.12950 
0.12950 
0.07850 
0.07850 
0.10250 
0.10250 
0.12950 
0.12950 
0.05700 
0.05700 
0.13600 
0.13600 