# vtk DataFile Version 2.1 
Trajects from timestep 185 with color option 
ASCII 
 
DATASET POLYDATA POINTS 866 float 
0.273 -0.770 -71.061 
0.341 -0.462 -71.367 
-8.039 -2.319 -74.038 
-7.883 -2.177 -74.045 
-1.078 -2.129 -72.411 
-0.775 -1.960 -72.765 
3.378 6.656 -70.909 
3.314 6.532 -70.924 
0.489 6.454 -71.866 
0.424 6.437 -72.152 
-10.673 -1.020 -71.983 
-10.698 -0.632 -71.849 
10.940 4.456 -70.151 
10.897 4.485 -70.348 
-6.378 6.963 -70.919 
-6.272 7.192 -71.134 
4.117 5.938 -70.657 
4.178 5.799 -70.768 
0.849 -7.620 -71.791 
1.012 -7.454 -71.844 
0.257 -1.659 -70.758 
0.380 -1.278 -70.949 
-5.070 -4.610 -68.707 
-4.979 -4.457 -68.816 
-7.607 8.325 -70.271 
-7.567 8.352 -70.371 
6.180 10.369 -70.114 
6.054 10.167 -70.106 
-3.345 10.335 -72.007 
-3.607 10.517 -72.107 
3.287 5.398 -68.470 
3.251 5.613 -68.578 
-2.242 6.564 -72.101 
-2.235 6.631 -72.247 
0.954 -7.282 -68.674 
0.979 -7.154 -69.072 
3.713 -4.880 -69.877 
3.856 -4.908 -70.286 
7.015 7.058 -71.720 
6.862 6.821 -71.687 
2.300 2.761 -68.850 
2.499 2.672 -69.036 
0.525 3.549 -67.983 
0.748 3.573 -68.105 
-7.096 5.242 -67.187 
-6.961 5.598 -67.168 
-2.360 6.359 -66.708 
-2.261 6.472 -66.677 
10.523 3.490 -70.378 
10.466 3.527 -70.517 
5.828 0.046 -67.818 
5.839 0.033 -68.027 
-7.840 -0.131 -74.212 
-7.709 0.042 -74.234 
2.913 6.490 -70.401 
2.836 6.448 -70.579 
3.399 0.826 -74.164 
3.636 0.847 -74.478 
3.224 -1.225 -67.035 
3.098 -1.281 -67.257 
1.950 8.931 -66.925 
1.651 8.631 -66.867 
-4.566 7.854 -67.533 
-4.445 8.053 -67.687 
-1.983 -5.075 -67.725 
-2.087 -4.829 -67.972 
-7.286 -2.314 -68.464 
-7.301 -2.078 -68.464 
3.400 -7.427 -64.460 
3.158 -7.298 -64.700 
-0.011 -3.955 -69.787 
-0.031 -3.840 -69.931 
0.091 8.619 -65.943 
0.088 8.793 -65.823 
10.978 9.254 -72.378 
10.911 9.169 -72.646 
1.261 -0.824 -63.342 
1.189 -0.973 -63.422 
-6.371 -7.721 -70.965 
-6.040 -7.459 -70.791 
4.580 9.639 -67.206 
4.394 9.644 -67.067 
-6.205 4.571 -73.955 
-6.090 4.690 -74.220 
-4.492 7.656 -72.727 
-4.275 8.041 -72.702 
-6.183 -6.555 -71.490 
-5.819 -6.479 -71.599 
1.205 6.401 -71.137 
1.154 6.382 -71.366 
-14.197 -3.051 -69.017 
-14.027 -2.767 -69.016 
-6.034 10.752 -68.568 
-6.234 10.777 -68.613 
0.953 -3.804 -71.127 
0.952 -3.669 -71.404 
5.559 1.199 -63.397 
5.656 1.335 -63.524 
1.253 10.277 -63.373 
1.308 10.533 -63.357 
7.927 0.150 -67.524 
8.077 0.290 -67.829 
7.214 1.416 -69.787 
7.186 1.333 -70.046 
1.393 11.309 -71.213 
1.181 11.085 -71.108 
2.145 1.985 -70.379 
2.391 1.878 -70.613 
0.377 5.188 -69.310 
0.469 5.176 -69.495 
4.851 -6.570 -70.079 
4.948 -6.684 -70.583 
-6.035 1.507 -66.322 
-5.813 1.882 -66.267 
6.463 7.600 -71.292 
6.219 7.491 -71.234 
-8.939 -10.928 -71.020 
-8.718 -10.816 -70.856 
3.923 -7.221 -67.587 
4.067 -7.285 -67.931 
7.691 -1.739 -65.403 
7.749 -1.594 -65.803 
-0.024 -2.661 -65.023 
-0.099 -2.644 -65.331 
-1.022 -7.459 -69.054 
-0.933 -7.330 -69.134 
8.173 -4.718 -68.059 
8.291 -4.812 -68.233 
8.266 -0.584 -72.799 
8.258 -0.573 -73.029 
1.230 12.865 -66.180 
0.854 12.922 -66.099 
2.226 -7.702 -71.846 
2.429 -7.544 -72.008 
-15.636 10.756 -73.992 
-15.638 11.061 -74.131 
9.066 -7.442 -71.845 
9.190 -7.313 -71.939 
4.857 10.848 -67.231 
4.595 10.737 -67.182 
2.638 -10.831 -68.113 
2.960 -10.761 -68.204 
1.531 9.531 -71.892 
1.443 9.497 -71.945 
-4.271 0.487 -66.471 
-4.155 0.800 -66.627 
-4.239 7.871 -64.313 
-4.060 8.039 -64.066 
-9.461 9.297 -70.117 
-9.489 9.455 -70.222 
-5.763 -3.059 -70.360 
-5.621 -2.862 -70.406 
-0.591 8.734 -64.652 
-0.522 8.960 -64.609 
-0.738 -9.355 -71.837 
-0.561 -9.320 -72.055 
-2.902 3.271 -65.471 
-2.600 3.485 -65.460 
-1.394 3.233 -63.956 
-1.262 3.369 -63.952 
-9.122 5.450 -69.167 
-9.046 5.432 -69.179 
-10.796 -2.871 -66.718 
-10.738 -2.785 -66.904 
-9.819 -11.957 -71.858 
-9.678 -11.881 -71.562 
-9.239 7.683 -63.028 
-9.029 8.035 -62.943 
-0.059 9.933 -70.750 
-0.179 10.028 -70.702 
8.527 -1.754 -69.818 
8.598 -1.655 -69.951 
6.786 -0.381 -67.065 
6.917 -0.341 -67.429 
5.238 13.225 -64.556 
4.970 12.848 -64.368 
-3.022 8.759 -64.556 
-2.951 8.919 -64.548 
-0.194 -0.302 -68.333 
-0.161 -0.162 -68.724 
-2.060 4.281 -68.588 
-1.874 4.509 -68.598 
-3.317 5.608 -64.378 
-3.272 5.633 -64.319 
1.681 3.570 -63.596 
1.428 3.541 -63.572 
7.034 -5.569 -67.153 
7.291 -5.615 -67.253 
-12.182 -5.557 -71.156 
-12.113 -5.364 -71.346 
4.446 10.431 -72.013 
4.395 10.169 -72.037 
2.520 -6.999 -71.935 
2.838 -6.856 -72.245 
-4.730 -12.383 -69.305 
-4.491 -12.355 -69.256 
13.600 2.714 -67.583 
13.265 3.011 -67.547 
12.864 -7.623 -71.673 
12.823 -7.673 -71.908 
9.177 -0.200 -62.490 
9.256 -0.043 -62.793 
11.146 -12.100 -70.300 
11.241 -12.044 -70.232 
3.870 -1.169 -59.211 
3.884 -1.142 -59.325 
0.388 1.697 -65.186 
0.543 1.773 -65.401 
-0.954 -1.871 -65.891 
-0.902 -1.702 -66.220 
11.880 1.085 -66.599 
11.815 1.036 -66.785 
3.047 -11.785 -76.849 
3.289 -11.712 -76.927 
12.274 -3.816 -69.090 
12.457 -3.955 -69.395 
-4.148 -1.613 -71.165 
-3.905 -1.388 -71.432 
4.779 -3.985 -65.199 
4.759 -3.798 -65.699 
-0.965 4.913 -64.310 
-0.797 5.014 -64.489 
10.645 8.260 -71.352 
10.719 8.320 -71.292 
-1.612 3.683 -64.516 
-1.487 3.585 -64.589 
8.972 1.565 -64.507 
9.053 1.600 -64.597 
-9.131 -0.843 -62.407 
-9.296 -0.788 -62.809 
10.480 3.150 -72.170 
10.513 3.154 -72.468 
-8.297 -3.894 -70.378 
-8.197 -3.665 -70.473 
7.231 -9.608 -70.683 
7.404 -9.528 -70.709 
-3.987 -10.080 -72.336 
-3.624 -10.049 -72.355 
4.363 -5.294 -69.120 
4.387 -5.362 -69.456 
-8.381 9.272 -72.522 
-8.335 9.327 -72.801 
-11.624 2.136 -64.220 
-11.685 2.292 -64.464 
12.197 2.476 -64.628 
12.352 2.757 -64.985 
-2.169 8.629 -76.206 
-2.104 8.833 -76.571 
6.316 10.970 -70.756 
6.133 10.672 -70.730 
-9.678 -8.372 -68.844 
-9.558 -8.257 -69.130 
8.921 -12.344 -73.929 
9.074 -12.327 -73.993 
-3.090 4.236 -64.707 
-2.992 4.249 -64.513 
6.516 -5.903 -63.864 
6.478 -5.832 -63.967 
-2.017 -9.655 -64.974 
-2.250 -9.633 -64.988 
3.867 -1.507 -63.395 
3.834 -1.343 -63.690 
15.460 -4.235 -70.637 
15.417 -4.073 -70.747 
6.808 4.242 -63.724 
6.706 4.477 -63.960 
-6.419 -3.587 -63.029 
-6.347 -3.589 -63.380 
3.637 6.417 -63.227 
3.460 6.540 -63.257 
-3.308 -11.720 -62.883 
-3.395 -11.570 -62.594 
-3.175 11.154 -72.292 
-3.508 11.419 -72.434 
6.636 -8.688 -66.049 
6.577 -8.624 -66.235 
8.467 5.556 -67.547 
8.559 5.480 -67.488 
-0.173 4.661 -64.587 
-0.041 4.941 -64.705 
-1.313 -10.413 -70.148 
-1.112 -10.488 -70.217 
-5.777 9.561 -74.475 
-5.786 9.681 -74.597 
10.664 -7.075 -62.951 
10.339 -7.105 -63.072 
9.973 8.461 -66.583 
9.963 8.448 -66.596 
9.008 6.956 -65.602 
9.079 6.898 -65.676 
-10.392 -0.727 -64.854 
-10.451 -0.564 -65.166 
-1.154 -8.082 -67.973 
-1.002 -8.004 -67.895 
-3.126 -5.183 -64.015 
-3.112 -5.210 -64.357 
-12.141 0.351 -66.600 
-12.153 0.627 -66.859 
1.373 -6.465 -65.296 
1.400 -6.459 -65.889 
-9.695 5.979 -62.409 
-9.611 6.156 -62.485 
-12.154 10.182 -70.711 
-11.943 10.471 -70.867 
0.753 8.479 -65.648 
0.803 8.621 -65.485 
-0.069 -11.765 -69.311 
0.204 -11.704 -69.232 
4.782 0.761 -72.211 
5.044 0.570 -72.641 
3.467 8.190 -64.874 
3.635 8.351 -64.852 
5.880 -2.501 -63.980 
5.949 -2.267 -64.324 
6.655 -4.405 -62.594 
6.708 -4.225 -62.876 
-12.064 -7.649 -63.640 
-12.034 -7.612 -63.682 
-0.300 5.944 -62.343 
-0.360 5.967 -62.364 
1.358 7.015 -64.893 
1.402 7.137 -64.967 
10.100 -2.551 -66.181 
10.236 -2.597 -66.642 
-6.339 -8.817 -62.459 
-6.554 -8.829 -62.600 
-5.764 3.330 -62.447 
-5.561 3.454 -62.323 
-9.396 -2.161 -64.532 
-9.378 -2.082 -64.799 
12.712 8.574 -72.840 
12.883 8.648 -73.218 
-9.272 8.155 -68.349 
-9.277 8.099 -68.143 
-6.216 -8.824 -69.546 
-5.929 -8.830 -69.517 
-11.976 8.771 -74.280 
-11.808 9.258 -74.348 
2.448 -4.107 -67.764 
2.558 -4.166 -68.066 
9.626 3.896 -67.261 
9.586 3.775 -67.517 
12.766 10.511 -63.726 
12.884 10.833 -63.625 
7.949 -7.072 -66.292 
7.825 -7.079 -66.383 
10.973 9.502 -69.308 
11.198 9.535 -69.436 
0.357 -0.938 -75.717 
0.541 -0.746 -76.124 
-3.835 -8.136 -61.618 
-4.312 -7.984 -62.010 
-2.868 6.423 -66.297 
-2.766 6.568 -66.206 
7.247 -0.551 -62.320 
7.298 -0.418 -62.592 
0.306 -12.507 -68.933 
0.543 -12.469 -68.899 
5.655 -1.956 -61.942 
5.730 -1.858 -62.255 
16.143 12.365 -70.551 
16.444 12.224 -70.710 
-6.495 -1.201 -59.427 
-6.389 -1.123 -59.900 
-11.378 11.714 -69.652 
-11.424 12.064 -69.682 
6.280 2.388 -66.890 
6.339 2.457 -66.963 
11.352 6.692 -71.559 
11.511 6.656 -71.927 
-5.951 -5.585 -71.306 
-5.742 -5.466 -71.532 
10.726 -2.078 -66.047 
10.797 -2.176 -66.420 
8.077 -1.799 -63.045 
8.170 -1.673 -63.489 
4.821 8.723 -70.527 
4.664 8.674 -70.437 
-12.765 11.568 -70.109 
-12.437 11.833 -70.192 
13.531 -4.444 -70.766 
13.630 -4.585 -71.097 
-4.633 3.139 -73.272 
-4.618 3.286 -73.319 
-6.513 11.533 -71.211 
-6.747 11.616 -71.401 
7.733 8.373 -65.570 
7.827 8.177 -65.419 
-9.569 -0.756 -68.202 
-9.425 -0.408 -68.388 
12.673 3.695 -67.593 
12.297 3.932 -67.681 
7.463 0.617 -58.290 
7.450 0.675 -58.662 
-10.706 -7.710 -69.969 
-10.660 -7.649 -70.255 
-6.637 -10.618 -68.704 
-6.381 -10.548 -68.572 
3.806 5.071 -64.503 
3.551 5.063 -64.455 
7.067 6.481 -71.723 
7.001 6.237 -71.933 
-6.377 -6.648 -62.914 
-6.527 -6.572 -63.079 
12.957 -9.579 -73.808 
13.050 -9.430 -73.903 
-12.411 6.228 -67.105 
-12.401 6.503 -66.914 
-2.305 -3.865 -70.001 
-2.187 -3.781 -70.316 
7.478 5.819 -65.334 
7.257 5.934 -65.475 
6.735 -3.375 -73.996 
6.781 -3.422 -74.483 
-9.723 -9.374 -69.264 
-9.530 -9.216 -69.582 
8.188 -8.442 -72.833 
8.464 -8.511 -73.100 
5.757 2.900 -62.846 
5.633 2.910 -62.813 
5.833 12.264 -70.703 
5.830 11.888 -70.614 
-11.593 6.761 -68.247 
-11.568 7.033 -68.102 
4.954 3.569 -67.582 
4.931 3.703 -67.659 
7.194 -2.519 -71.544 
7.278 -2.371 -72.046 
9.214 -9.269 -69.682 
9.270 -9.189 -69.691 
-1.039 -8.540 -67.290 
-1.003 -8.427 -67.142 
6.130 -2.139 -71.112 
6.144 -2.289 -71.321 
-6.522 -6.419 -69.213 
-6.309 -6.323 -69.418 
-2.201 -0.910 -65.580 
-2.168 -0.850 -65.807 
1.347 -11.175 -69.547 
1.467 -11.303 -69.673 
-8.123 9.106 -64.356 
-7.995 9.067 -64.018 
-8.773 9.253 -66.933 
-8.727 9.028 -66.739 
[...]
POINT_DATA 866 
SCALARS Umean double 1 
LOOKUP_TABLE default
0.21973 
0.21973 
0.10553 
0.10553 
0.24783 
0.24783 
0.07017 
0.07017 
0.14689 
0.14689 
0.20562 
0.20562 
0.10186 
0.10186 
0.16576 
0.16576 
0.09403 
0.09403 
0.11930 
0.11930 
0.22179 
0.22179 
0.10437 
0.10437 
0.05552 
0.05552 
0.11910 
0.11910 
0.16716 
0.16716 
0.12164 
0.12164 
0.08040 
0.08040 
0.20941 
0.20941 
0.21709 
0.21709 
0.14201 
0.14201 
0.14328 
0.14328 
0.12766 
0.12766 
0.19061 
0.19061 
0.07670 
0.07670 
0.07736 
0.07736 
0.10485 
0.10485 
0.10906 
0.10906 
0.09922 
0.09922 
0.19698 
0.19698 
0.13067 
0.13067 
0.21376 
0.21376 
0.13960 
0.13960 
0.18189 
0.18189 
0.11824 
0.11824 
0.18221 
0.18221 
0.09268 
0.09268 
0.10569 
0.10569 
0.14451 
0.14451 
0.09190 
0.09190 
0.22830 
0.22830 
0.11613 
0.11613 
0.15621 
0.15621 
0.22132 
0.22132 
0.19375 
0.19375 
0.11769 
0.11769 
0.16550 
0.16550 
0.10326 
0.10326 
0.15407 
0.15407 
0.10492 
0.10492 
0.13116 
0.13116 
0.18380 
0.18380 
0.13671 
0.13671 
0.16290 
0.16290 
0.17799 
0.17799 
0.10348 
0.10348 
0.26288 
0.26288 
0.21962 
0.21962 
0.13673 
0.13673 
0.14856 
0.14856 
0.18919 
0.18919 
0.21470 
0.21470 
0.15873 
0.15873 
0.08798 
0.08798 
0.11515 
0.11515 
0.11520 
0.11520 
0.19441 
0.19441 
0.15200 
0.15200 
0.16759 
0.16759 
0.10106 
0.10106 
0.14437 
0.14437 
0.17093 
0.17093 
0.05410 
0.05410 
0.18423 
0.18423 
0.17412 
0.17412 
0.09588 
0.09588 
0.12358 
0.12358 
0.12009 
0.12009 
0.14149 
0.14149 
0.18515 
0.18515 
0.09478 
0.09478 
0.03951 
0.03951 
0.10648 
0.10648 
0.16828 
0.16828 
0.20930 
0.20930 
0.08020 
0.08020 
0.09018 
0.09018 
0.19446 
0.19446 
0.24965 
0.24965 
0.08761 
0.08761 
0.20831 
0.20831 
0.14721 
0.14721 
0.03915 
0.03915 
0.12789 
0.12789 
0.13979 
0.13979 
0.13974 
0.13974 
0.13400 
0.13400 
0.23328 
0.23328 
0.12279 
0.12279 
0.22457 
0.22457 
0.12187 
0.12187 
0.17514 
0.17514 
0.06478 
0.06478 
0.05899 
0.05899 
0.13786 
0.13786 
0.18675 
0.18675 
0.10152 
0.10152 
0.13227 
0.13227 
0.19094 
0.19094 
0.21270 
0.21270 
0.26710 
0.26710 
0.13273 
0.13273 
0.05629 
0.05629 
0.08740 
0.08740 
0.06302 
0.06302 
0.21901 
0.21901 
0.14992 
0.14992 
0.13367 
0.13367 
0.09618 
0.09618 
0.18241 
0.18241 
0.17183 
0.17183 
0.14403 
0.14403 
0.14798 
0.14798 
0.24002 
0.24002 
0.21158 
0.21158 
0.17533 
0.17533 
0.16539 
0.16539 
0.08336 
0.08336 
0.10887 
0.10887 
0.06537 
0.06537 
0.11723 
0.11723 
0.16957 
0.16957 
0.10024 
0.10024 
0.17416 
0.17416 
0.17916 
0.17916 
0.10881 
0.10881 
0.16852 
0.16852 
0.22432 
0.22432 
0.10268 
0.10268 
0.06656 
0.06656 
0.16564 
0.16564 
0.11268 
0.11268 
0.08568 
0.08568 
0.17404 
0.17404 
0.01046 
0.01046 
0.05891 
0.05891 
0.17846 
0.17846 
0.09390 
0.09390 
0.17167 
0.17167 
0.18934 
0.18934 
0.29682 
0.29682 
0.10507 
0.10507 
0.19518 
0.19518 
0.11094 
0.11094 
0.14534 
0.14534 
0.26927 
0.26927 
0.11686 
0.11686 
0.21086 
0.21086 
0.16936 
0.16936 
0.03175 
0.03175 
0.03380 
0.03380 
0.07466 
0.07466 
0.24142 
0.24142 
0.12870 
0.12870 
0.13413 
0.13413 
0.13951 
0.13951 
0.21071 
0.21071 
0.10677 
0.10677 
0.14426 
0.14426 
0.25982 
0.25982 
0.16339 
0.16339 
0.14298 
0.14298 
0.17875 
0.17875 
0.07698 
0.07698 
0.13048 
0.13048 
0.24309 
0.24309 
0.31792 
0.31792 
0.09964 
0.09964 
0.15352 
0.15352 
0.12121 
0.12121 
0.16822 
0.16822 
0.18423 
0.18423 
0.24548 
0.24548 
0.17714 
0.17714 
0.05825 
0.05825 
0.20125 
0.20125 
0.16501 
0.16501 
0.19607 
0.19607 
0.23540 
0.23540 
0.09374 
0.09374 
0.21488 
0.21488 
0.18658 
0.18658 
0.07753 
0.07753 
0.15632 
0.15632 
0.13234 
0.13234 
0.21002 
0.21002 
0.22654 
0.22654 
0.18836 
0.18836 
0.14801 
0.14801 
0.14821 
0.14821 
0.12980 
0.12980 
0.16431 
0.16431 
0.11779 
0.11779 
0.09984 
0.09984 
0.16749 
0.16749 
0.17335 
0.17335 
0.14313 
0.14313 
0.24571 
0.24571 
0.20207 
0.20207 
0.19508 
0.19508 
0.06435 
0.06435 
0.19320 
0.19320 
0.15462 
0.15462 
0.07812 
0.07812 
0.26503 
0.26503 
0.04903 
0.04903 
0.09483 
0.09483 
0.12882 
0.12882 
0.15541 
0.15541 
0.11855 
0.11855 
0.10800 
0.10800 
0.18176 
0.18176 
0.15031 
0.15031 
0.10929 
0.10929 
0.32100 
0.32100 
0.16265 
0.16265 
0.16893 
0.16893 
0.11708 
0.11708 
0.11248 
0.11248 
0.15098 
0.15098 
0.08792 
0.08792 
0.15947 
0.15947 
0.12783 
0.12783 
0.12863 
0.12863 
0.12546 
0.12546 
0.26742 
0.26742 
0.17918 
0.17918 
0.22184 
0.22184 
0.14707 
0.14707 
0.20684 
0.20684 
0.06272 
0.06272 
0.20391 
0.20391 
0.05309 
0.05309 
0.24522 
0.24522 
0.07085 
0.07085 
0.25792 
0.25792 
0.06123 
0.06123 
0.13195 
0.13195 
0.22725 
0.22725 
0.06070 
0.06070 
0.10006 
0.10006 
0.20140 
0.20140 
0.19737 
0.19737 
0.15770 
0.15770 
0.10009 
0.10009 
0.07099 
0.07099 
0.13467 
0.13467 
0.21105 
0.21105 
0.14916 
0.14916 
0.15210 
0.15210 
0.12329 
0.12329 
0.11961 
0.11961 
0.04220 
0.04220 
0.17210 
0.17210 
0.07800 
0.07800 
0.18817 
0.18817 
0.13383 
0.13383 
0.27870 
0.27870 
0.18958 
0.18958 
0.07919 
0.07919 
0.10643 
0.10643 
0.23636 
0.23636 
0.03864 
0.03864 
0.14694 
0.14694 
0.08928 
0.08928 
0.11663 
0.11663 
0.19241 
0.19241 
0.21345 
0.21345 
0.11062 
0.11062 
0.03106 
0.03106 
0.10636 
0.10636 
0.05530 
0.05530 
0.19710 
0.19710 
0.23952 
0.23952 
0.27764 
0.27764 
0.14862 
0.14862 
0.19742 
0.19742 
0.14881 
0.14881 
0.24318 
0.24318 
0.16450 
0.16450 
0.14830 
0.14830 
0.08057 
0.08057 
0.25758 
0.25758 
0.18543 
0.18543 
0.10091 
0.10091 
0.07275 
0.07275 
0.20715 
0.20715 
0.14031 
0.14031 
0.18748 
0.18748 
0.12759 
0.12759 
0.15464 
0.15464 
0.05819 
0.05819 
0.11380 
0.11380 
0.19785 
0.19785 
0.13117 
0.13117 
0.09202 
0.09202 
0.04655 
0.04655 
0.08334 
0.08334 
0.12210 
0.12210 
0.14413 
0.14413 
0.34459 
0.34459 
0.06155 
0.06155 
0.13369 
0.13369 
0.09337 
0.09337 
0.08970 
0.08970 
0.16797 
0.16797 
0.22951 
0.22951 
0.13065 
0.13065 
0.07806 
0.07806 
0.20809 
0.20809 
0.15596 
0.15596 
0.13038 
0.13038 
0.08931 
0.08931 
0.13860 
0.13860 
0.16609 
0.16609 
0.30126 
0.30126 
0.15472 
0.15472 
0.02867 
0.02867 
0.23433 
0.23433 
0.19359 
0.19359 
0.26196 
0.26196 
0.10620 
0.10620 
0.09551 
0.09551 
0.17071 
0.17071 
0.11044 
0.11044 
0.11541 
0.11541 
0.24076 
0.24076 
0.11625 
0.11625 
0.14549 
0.14549 
0.10612 
0.10612 
0.22882 
0.22882 
0.22942 
0.22942 
0.05314 
0.05314 
0.10048 
0.10048 
0.15555 
0.15555 
0.08802 
0.08802 
0.14924 
0.14924 
0.16733 
0.16733 
0.08083 
0.08083 
0.15983 
0.15983 
0.08558 
0.08558 
0.28569 
0.28569 
0.06472 
0.06472 
0.06223 
0.06223 
0.15066 
0.15066 
0.08336 
0.08336 
0.18834 
0.18834 
0.12214 
0.12214 
0.21108 
0.21108 
0.08612 
0.08612 
0.12205 
0.12205 
0.19914 
0.19914 
0.08777 
0.08777 
0.03207 
0.03207 
0.22270 
0.22270 
0.33713 
0.33713 
0.15081 
0.15081 
0.26657 
0.26657 
0.08925 
0.08925 
0.22178 
0.22178 
0.12079 
0.12079 
0.13862 
0.13862 
0.15045 
0.15045 
0.13650 
0.13650 
0.33885 
0.33885 
0.06622 
0.06622 
0.22750 
0.22750 
0.20627 
0.20627 
0.21049 
0.21049 
0.35242 
0.35242 
0.15279 
0.15279 
0.23207 
0.23207 
0.13790 
0.13790 
0.14192 
0.14192 
0.19214 
0.19214 
0.13598 
0.13598 
0.12490 
0.12490 
0.12342 
0.12342 
0.23481 
0.23481 
0.16715 
0.16715 
0.26103 
0.26103 
0.11297 
0.11297 
0.10902 
0.10902 
0.11247 
0.11247 
0.14504 
0.14504 
0.08700 
0.08700 
0.06807 
0.06807 
0.07631 
0.07631 
0.14781 
0.14781 
0.12617 
0.12617 
0.12866 
0.12866 
0.05626 
0.05626 
0.12083 
0.12083 
0.09707 
0.09707 
0.12059 
0.12059 
0.09647 
0.09647 
0.11674 
0.11674 
0.04151 
0.04151 
0.12483 
0.12483 
0.08768 
0.08768 
0.08368 
0.08368 
0.07496 
0.07496 
0.13679 
0.13679 
0.09813 
0.09813 
0.14350 
0.14350 
0.05534 
0.05534 
0.11881 
0.11881 
0.12878 
0.12878 
0.11793 
0.11793 
0.22273 
0.22273 
0.13883 
0.13883 
0.15348 
0.15348 
0.06780 
0.06780 
0.06915 
0.06915 
0.22426 
0.22426 
0.29537 
0.29537 
0.19973 
0.19973 
0.08671 
0.08671 
0.12193 
0.12193 
0.11312 
0.11312 
0.09711 
0.09711 
0.17285 
0.17285 
0.15729 
0.15729 
0.12671 
0.12671 
SCALARS Umean_X double 1 
LOOKUP_TABLE default
0.03400 
0.03400 
0.07800 
0.07800 
0.15150 
0.15150 
-0.03200 
-0.03200 
-0.03250 
-0.03250 
-0.01250 
-0.01250 
-0.02150 
-0.02150 
0.05300 
0.05300 
0.03050 
0.03050 
0.08150 
0.08150 
0.06150 
0.06150 
0.04550 
0.04550 
0.02000 
0.02000 
-0.06300 
-0.06300 
-0.13100 
-0.13100 
-0.01800 
-0.01800 
0.00350 
0.00350 
0.01250 
0.01250 
0.07150 
0.07150 
-0.07650 
-0.07650 
0.09950 
0.09950 
0.11150 
0.11150 
0.06750 
0.06750 
0.04950 
0.04950 
-0.02850 
-0.02850 
0.00550 
0.00550 
0.06550 
0.06550 
-0.03850 
-0.03850 
0.11850 
0.11850 
-0.06300 
-0.06300 
-0.14950 
-0.14950 
0.06050 
0.06050 
-0.05200 
-0.05200 
-0.00750 
-0.00750 
-0.12100 
-0.12100 
-0.01000 
-0.01000 
-0.00150 
-0.00150 
-0.03350 
-0.03350 
-0.03600 
-0.03600 
0.16550 
0.16550 
-0.09300 
-0.09300 
0.05750 
0.05750 
0.10850 
0.10850 
0.18200 
0.18200 
-0.02550 
-0.02550 
0.08500 
0.08500 
-0.10000 
-0.10000 
-0.00050 
-0.00050 
0.04850 
0.04850 
0.02750 
0.02750 
0.07500 
0.07500 
-0.01400 
-0.01400 
-0.10600 
-0.10600 
0.12300 
0.12300 
0.04600 
0.04600 
0.04850 
0.04850 
0.11100 
0.11100 
-0.12200 
-0.12200 
0.11050 
0.11050 
0.07200 
0.07200 
0.02900 
0.02900 
-0.03750 
-0.03750 
0.04450 
0.04450 
0.05900 
0.05900 
-0.00400 
-0.00400 
-0.18800 
-0.18800 
0.10150 
0.10150 
-0.00100 
-0.00100 
0.06200 
0.06200 
-0.13100 
-0.13100 
0.16100 
0.16100 
-0.04400 
-0.04400 
0.05800 
0.05800 
0.08950 
0.08950 
-0.01400 
-0.01400 
0.07100 
0.07100 
0.03450 
0.03450 
0.08850 
0.08850 
0.15100 
0.15100 
0.06600 
0.06600 
0.03800 
0.03800 
0.02900 
0.02900 
0.07050 
0.07050 
0.10500 
0.10500 
-0.06000 
-0.06000 
0.03550 
0.03550 
0.06550 
0.06550 
-0.13400 
-0.13400 
0.03550 
0.03550 
0.01650 
0.01650 
0.09300 
0.09300 
0.02250 
0.02250 
-0.12650 
-0.12650 
0.12850 
0.12850 
0.03450 
0.03450 
-0.02550 
-0.02550 
0.15900 
0.15900 
0.11950 
0.11950 
-0.16750 
-0.16750 
-0.02050 
-0.02050 
0.03950 
0.03950 
0.04750 
0.04750 
0.00700 
0.00700 
0.07750 
0.07750 
0.02600 
0.02600 
-0.03250 
-0.03250 
0.12100 
0.12100 
0.09150 
0.09150 
0.12150 
0.12150 
-0.01000 
-0.01000 
0.08400 
0.08400 
0.03700 
0.03700 
0.06250 
0.06250 
0.04050 
0.04050 
-0.08250 
-0.08250 
0.01650 
0.01650 
0.05000 
0.05000 
0.08650 
0.08650 
0.18150 
0.18150 
0.01200 
0.01200 
0.02300 
0.02300 
-0.03050 
-0.03050 
0.07750 
0.07750 
0.03250 
0.03250 
-0.09150 
-0.09150 
0.06000 
0.06000 
0.07650 
0.07650 
0.04900 
0.04900 
-0.01900 
-0.01900 
-0.11650 
-0.11650 
-0.01650 
-0.01650 
-0.02150 
-0.02150 
-0.05100 
-0.05100 
0.03600 
0.03600 
-0.08850 
-0.08850 
-0.04350 
-0.04350 
-0.16650 
-0.16650 
-0.02950 
-0.02950 
0.04600 
0.04600 
0.06600 
0.06600 
0.10050 
0.10050 
-0.00450 
-0.00450 
-0.16250 
-0.16250 
-0.00500 
-0.00500 
0.03550 
0.03550 
-0.02950 
-0.02950 
0.07600 
0.07600 
0.00700 
0.00700 
-0.00600 
-0.00600 
0.01350 
0.01350 
0.04200 
0.04200 
0.10550 
0.10550 
0.02500 
0.02500 
0.13650 
0.13650 
0.13100 
0.13100 
0.08400 
0.08400 
0.03450 
0.03450 
0.02650 
0.02650 
0.01500 
0.01500 
-0.03000 
-0.03000 
0.02200 
0.02200 
0.06800 
0.06800 
-0.10750 
-0.10750 
0.10150 
0.10150 
0.00900 
0.00900 
0.08550 
0.08550 
-0.00250 
-0.00250 
0.14350 
0.14350 
0.08400 
0.08400 
0.05500 
0.05500 
-0.02000 
-0.02000 
0.05900 
0.05900 
-0.06200 
-0.06200 
0.11250 
0.11250 
0.09200 
0.09200 
-0.23850 
-0.23850 
0.05100 
0.05100 
0.02550 
0.02550 
0.11850 
0.11850 
0.03750 
0.03750 
0.15050 
0.15050 
0.05300 
0.05300 
-0.02300 
-0.02300 
0.02950 
0.02950 
0.07950 
0.07950 
0.10450 
0.10450 
0.03550 
0.03550 
0.04650 
0.04650 
-0.07850 
-0.07850 
0.16400 
0.16400 
0.04950 
0.04950 
0.00750 
0.00750 
-0.11700 
-0.11700 
0.04700 
0.04700 
0.07200 
0.07200 
-0.18800 
-0.18800 
-0.00650 
-0.00650 
0.02300 
0.02300 
0.12800 
0.12800 
-0.12750 
-0.12750 
-0.03300 
-0.03300 
-0.07500 
-0.07500 
0.04650 
0.04650 
0.00500 
0.00500 
0.05900 
0.05900 
-0.11050 
-0.11050 
0.02300 
0.02300 
0.09650 
0.09650 
0.13800 
0.13800 
-0.06200 
-0.06200 
-0.00150 
-0.00150 
0.01250 
0.01250 
-0.01150 
-0.01150 
0.04200 
0.04200 
0.02800 
0.02800 
0.01800 
0.01800 
0.00700 
0.00700 
0.10650 
0.10650 
0.01650 
0.01650 
0.06000 
0.06000 
0.06400 
0.06400 
0.02300 
0.02300 
-0.04450 
-0.04450 
0.09200 
0.09200 
0.12350 
0.12350 
-0.16300 
-0.16300 
-0.05800 
-0.05800 
0.10150 
0.10150 
-0.09300 
-0.09300 
0.06450 
0.06450 
0.12300 
0.12300 
0.04950 
0.04950 
-0.03250 
-0.03250 
-0.03350 
-0.03350 
-0.26450 
-0.26450 
0.01200 
0.01200 
0.11700 
0.11700 
0.01950 
0.01950 
0.07500 
0.07500 
-0.05300 
-0.05300 
0.11250 
0.11250 
0.02100 
0.02100 
-0.18150 
-0.18150 
0.02900 
0.02900 
0.07950 
0.07950 
0.02100 
0.02100 
0.05550 
0.05550 
0.09600 
0.09600 
-0.03750 
-0.03750 
-0.02750 
-0.02750 
0.03650 
0.03650 
0.12850 
0.12850 
0.07300 
0.07300 
-0.00250 
-0.00250 
0.06300 
0.06300 
-0.03250 
-0.03250 
-0.13250 
-0.13250 
0.12100 
0.12100 
0.11650 
0.11650 
0.03650 
0.03650 
0.01900 
0.01900 
0.04000 
0.04000 
-0.01950 
-0.01950 
-0.03350 
-0.03350 
-0.05650 
-0.05650 
0.11050 
0.11050 
0.13200 
0.13200 
0.03200 
0.03200 
-0.07300 
-0.07300 
0.03650 
0.03650 
0.14150 
0.14150 
0.03050 
0.03050 
0.04750 
0.04750 
0.08250 
0.08250 
0.05850 
0.05850 
0.06200 
0.06200 
-0.09750 
-0.09750 
-0.03150 
-0.03150 
-0.00800 
-0.00800 
0.10450 
0.10450 
0.00900 
0.00900 
-0.00400 
-0.00400 
-0.12400 
-0.12400 
-0.04700 
-0.04700 
0.07550 
0.07550 
-0.03950 
-0.03950 
0.02800 
0.02800 
-0.02400 
-0.02400 
0.00200 
0.00200 
0.02100 
0.02100 
-0.07950 
-0.07950 
0.03300 
0.03300 
0.09900 
0.09900 
0.06050 
0.06050 
0.00950 
0.00950 
0.09900 
0.09900 
0.03500 
0.03500 
0.08900 
0.08900 
0.02550 
0.02550 
0.07000 
0.07000 
0.00400 
0.00400 
-0.04350 
-0.04350 
0.08250 
0.08250 
0.03600 
0.03600 
0.08250 
0.08250 
-0.01850 
-0.01850 
0.03950 
0.03950 
-0.02200 
-0.02200 
0.14400 
0.14400 
-0.27550 
-0.27550 
0.04250 
0.04250 
0.01200 
0.01200 
0.08850 
0.08850 
0.01550 
0.01550 
0.10200 
0.10200 
-0.17250 
-0.17250 
-0.00150 
-0.00150 
-0.01450 
-0.01450 
0.10900 
0.10900 
0.05650 
0.05650 
0.01800 
0.01800 
-0.01900 
-0.01900 
-0.01900 
-0.01900 
0.15750 
0.15750 
0.28450 
0.28450 
0.03100 
0.03100 
-0.02200 
-0.02200 
0.23050 
0.23050 
-0.03500 
-0.03500 
0.07800 
0.07800 
0.07550 
0.07550 
0.06100 
0.06100 
0.15200 
0.15200 
-0.09550 
-0.09550 
-0.01050 
-0.01050 
0.01100 
0.01100 
0.08700 
0.08700 
0.03550 
0.03550 
-0.01650 
-0.01650 
0.14300 
0.14300 
0.06100 
0.06100 
0.00050 
0.00050 
0.07000 
0.07000 
0.09600 
0.09600 
-0.05900 
-0.05900 
0.05550 
0.05550 
0.04400 
0.04400 
0.07700 
0.07700 
0.06000 
0.06000 
-0.04650 
-0.04650 
0.21200 
0.21200 
0.00350 
0.00350 
0.05350 
0.05350 
0.08700 
0.08700 
-0.01700 
-0.01700 
-0.01400 
-0.01400 
0.03850 
0.03850 
0.12850 
0.12850 
0.04250 
0.04250 
0.12100 
0.12100 
0.01000 
0.01000 
-0.07850 
-0.07850 
0.01200 
0.01200 
-0.06650 
-0.06650 
0.21000 
0.21000 
0.13300 
0.13300 
0.06750 
0.06750 
0.05250 
0.05250 
0.01600 
0.01600 
-0.00750 
-0.00750 
0.08150 
0.08150 
0.05850 
0.05850 
0.06900 
0.06900 
0.20550 
0.20550 
-0.00150 
-0.00150 
0.05500 
0.05500 
0.05650 
0.05650 
0.20750 
0.20750 
0.14050 
0.14050 
0.09800 
0.09800 
0.19650 
0.19650 
0.07700 
0.07700 
0.12200 
0.12200 
-0.02050 
-0.02050 
0.12100 
0.12100 
0.04800 
0.04800 
-0.08700 
-0.08700 
0.06400 
0.06400 
0.09450 
0.09450 
-0.13400 
-0.13400 
0.11000 
0.11000 
0.05200 
0.05200 
0.02050 
0.02050 
0.12500 
0.12500 
0.02950 
0.02950 
0.03250 
0.03250 
0.04200 
0.04200 
0.03600 
0.03600 
0.04700 
0.04700 
0.02050 
0.02050 
0.01600 
0.01600 
0.12000 
0.12000 
-0.07900 
-0.07900 
0.10300 
0.10300 
0.03850 
0.03850 
-0.02300 
-0.02300 
0.00650 
0.00650 
0.11000 
0.11000 
0.01750 
0.01750 
0.02100 
0.02100 
-0.05850 
-0.05850 
0.03050 
0.03050 
0.05400 
0.05400 
0.05550 
0.05550 
-0.05100 
-0.05100 
0.00450 
0.00450 
-0.00050 
-0.00050 
0.06850 
0.06850 
0.11750 
0.11750 
-0.05050 
-0.05050 
0.03050 
0.03050 
-0.00400 
-0.00400 
0.03250 
0.03250 
0.13850 
0.13850 
0.15800 
0.15800 
0.12000 
0.12000 
0.06200 
0.06200 
0.06900 
0.06900 
0.03300 
0.03300 
-0.03100 
-0.03100 
-0.03750 
-0.03750 
0.02450 
0.02450 
0.07500 
0.07500 
SCALARS Umean_Y double 1 
LOOKUP_TABLE default
0.15400 
0.15400 
0.07100 
0.07100 
0.08450 
0.08450 
-0.06200 
-0.06200 
-0.00850 
-0.00850 
0.19400 
0.19400 
0.01450 
0.01450 
0.11450 
0.11450 
-0.06950 
-0.06950 
0.08300 
0.08300 
0.19050 
0.19050 
0.07650 
0.07650 
0.01350 
0.01350 
-0.10100 
-0.10100 
0.09100 
0.09100 
0.10750 
0.10750 
0.03350 
0.03350 
0.06400 
0.06400 
-0.01400 
-0.01400 
-0.11850 
-0.11850 
-0.04450 
-0.04450 
0.01200 
0.01200 
0.17800 
0.17800 
0.05650 
0.05650 
0.01850 
0.01850 
-0.00650 
-0.00650 
0.08650 
0.08650 
-0.02100 
-0.02100 
0.01050 
0.01050 
-0.02800 
-0.02800 
-0.15000 
-0.15000 
0.09950 
0.09950 
0.12300 
0.12300 
0.11800 
0.11800 
0.06450 
0.06450 
0.05750 
0.05750 
0.08700 
0.08700 
-0.04250 
-0.04250 
-0.07450 
-0.07450 
0.13100 
0.13100 
0.00250 
0.00250 
0.05950 
0.05950 
0.19250 
0.19250 
0.03800 
0.03800 
-0.00950 
-0.00950 
0.14200 
0.14200 
0.01250 
0.01250 
0.06750 
0.06750 
0.06800 
0.06800 
0.12800 
0.12800 
0.07000 
0.07000 
-0.04150 
-0.04150 
-0.11200 
-0.11200 
-0.05350 
-0.05350 
-0.00600 
-0.00600 
-0.05700 
-0.05700 
0.18750 
0.18750 
-0.05450 
-0.05450 
0.05600 
0.05600 
-0.03200 
-0.03200 
0.07250 
0.07250 
0.00850 
0.00850 
0.06450 
0.06450 
-0.04700 
-0.04700 
0.00550 
0.00550 
0.02850 
0.02850 
0.07900 
0.07900 
0.15250 
0.15250 
0.06450 
0.06450 
-0.05550 
-0.05550 
0.03500 
0.03500 
-0.01700 
-0.01700 
0.15650 
0.15650 
0.08400 
0.08400 
0.07900 
0.07900 
0.09850 
0.09850 
0.11300 
0.11300 
0.01750 
0.01750 
0.10700 
0.10700 
0.06800 
0.06800 
-0.00900 
-0.00900 
0.04300 
0.04300 
0.03800 
0.03800 
0.17600 
0.17600 
0.04750 
0.04750 
0.04950 
0.04950 
0.02000 
0.02000 
-0.18850 
-0.18850 
0.08000 
0.08000 
0.07000 
0.07000 
0.11400 
0.11400 
0.01250 
0.01250 
-0.01450 
-0.01450 
-0.02300 
-0.02300 
0.09650 
0.09650 
-0.13100 
-0.13100 
0.07150 
0.07150 
0.01400 
0.01400 
0.14850 
0.14850 
-0.02500 
-0.02500 
0.07850 
0.07850 
0.02800 
0.02800 
0.01350 
0.01350 
0.03800 
0.03800 
0.08450 
0.08450 
-0.02450 
-0.02450 
0.03650 
0.03650 
-0.06950 
-0.06950 
0.11250 
0.11250 
0.09350 
0.09350 
0.05050 
0.05050 
0.03000 
0.03000 
-0.04900 
-0.04900 
0.01750 
0.01750 
0.02750 
0.02750 
0.00200 
0.00200 
0.11450 
0.11450 
0.04000 
0.04000 
0.01550 
0.01550 
-0.03400 
-0.03400 
0.02750 
0.02750 
0.07800 
0.07800 
0.14050 
0.14050 
0.10200 
0.10200 
-0.14900 
-0.14900 
0.05750 
0.05750 
0.00850 
0.00850 
0.00650 
0.00650 
0.03550 
0.03550 
0.01100 
0.01100 
0.08200 
0.08200 
0.08100 
0.08100 
0.11750 
0.11750 
-0.00100 
-0.00100 
0.06150 
0.06150 
0.07500 
0.07500 
0.13250 
0.13250 
0.03200 
0.03200 
-0.03800 
-0.03800 
0.14000 
0.14000 
-0.03750 
-0.03750 
0.06000 
0.06000 
-0.01500 
-0.01500 
-0.00650 
-0.00650 
-0.02900 
-0.02900 
0.08150 
0.08150 
0.03900 
0.03900 
-0.01350 
-0.01350 
0.13800 
0.13800 
0.00300 
0.00300 
0.08850 
0.08850 
0.14450 
0.14450 
0.07100 
0.07100 
0.03050 
0.03050 
-0.09550 
-0.09550 
0.08050 
0.08050 
0.11700 
0.11700 
0.09000 
0.09000 
0.01850 
0.01850 
0.01150 
0.01150 
0.06100 
0.06100 
-0.02300 
-0.02300 
-0.00600 
-0.00600 
0.06200 
0.06200 
0.03950 
0.03950 
0.03700 
0.03700 
-0.02800 
-0.02800 
-0.00300 
-0.00300 
0.24350 
0.24350 
-0.02950 
-0.02950 
-0.06050 
-0.06050 
0.16100 
0.16100 
-0.00350 
-0.00350 
0.01650 
0.01650 
0.09600 
0.09600 
0.07600 
0.07600 
0.07250 
0.07250 
0.06650 
0.06650 
0.01900 
0.01900 
0.04900 
0.04900 
-0.07050 
-0.07050 
0.03900 
0.03900 
0.17500 
0.17500 
0.03450 
0.03450 
-0.01800 
-0.01800 
0.05950 
0.05950 
-0.04900 
-0.04900 
0.06300 
0.06300 
-0.02450 
-0.02450 
0.13250 
0.13250 
-0.07050 
-0.07050 
0.07350 
0.07350 
0.04150 
0.04150 
-0.09800 
-0.09800 
0.17400 
0.17400 
0.11850 
0.11850 
0.02900 
0.02900 
0.03050 
0.03050 
0.03500 
0.03500 
-0.00400 
-0.00400 
-0.12200 
-0.12200 
0.03800 
0.03800 
0.07450 
0.07450 
0.13750 
0.13750 
0.04200 
0.04200 
0.05750 
0.05750 
-0.02350 
-0.02350 
0.07900 
0.07900 
-0.03450 
-0.03450 
0.00500 
0.00500 
-0.18800 
-0.18800 
0.13600 
0.13600 
0.06700 
0.06700 
0.07400 
0.07400 
0.04000 