# vtk DataFile Version 2.1 
Trajects from timestep 112 with color option 
ASCII 
 
DATASET POLYDATA POINTS 1050 float 
-0.285 6.291 -68.466 
-0.237 6.491 -68.437 
5.081 -3.185 -73.827 
5.205 -2.985 -73.915 
-4.027 2.567 -72.777 
-3.901 2.852 -72.811 
0.988 9.318 -69.912 
1.030 9.521 -69.865 
-7.499 -1.092 -74.638 
-7.359 -0.946 -74.727 
-9.599 7.187 -70.633 
-9.487 7.483 -70.518 
-1.392 0.942 -71.638 
-1.203 1.200 -71.666 
-5.284 2.537 -70.908 
-5.204 2.703 -71.033 
4.181 -4.518 -71.717 
4.351 -4.320 -71.880 
1.698 6.560 -71.960 
1.693 6.794 -71.961 
0.279 7.385 -69.327 
0.356 7.621 -69.342 
-6.029 6.106 -72.513 
-5.955 6.238 -72.524 
-9.431 1.440 -72.613 
-9.412 1.688 -72.740 
-2.998 -3.212 -71.511 
-2.851 -2.883 -71.526 
-1.451 3.306 -70.208 
-1.405 3.480 -70.232 
0.454 6.703 -68.485 
0.485 6.922 -68.478 
4.455 0.051 -70.318 
4.582 0.234 -70.545 
-10.039 11.110 -70.697 
-9.910 11.256 -70.810 
5.416 3.805 -71.444 
5.604 4.073 -71.601 
4.467 6.434 -71.629 
4.504 6.638 -71.683 
-10.432 -3.095 -72.195 
-10.368 -2.834 -72.336 
-8.138 10.855 -69.065 
-8.009 10.957 -69.033 
1.659 4.339 -70.565 
1.727 4.534 -70.496 
-10.322 4.395 -68.458 
-10.397 4.657 -68.507 
-0.649 10.744 -72.085 
-0.583 10.962 -72.179 
-9.772 0.415 -71.466 
-9.767 0.610 -71.548 
-0.234 5.017 -76.143 
-0.198 5.154 -76.220 
1.036 10.112 -67.903 
1.096 10.257 -67.816 
-2.018 8.880 -68.815 
-1.898 9.150 -68.755 
-12.958 -3.874 -70.525 
-12.943 -3.696 -70.790 
-6.923 -4.920 -72.797 
-6.829 -4.638 -72.805 
10.254 -1.557 -68.139 
10.184 -1.414 -68.164 
1.499 10.919 -66.216 
1.504 11.073 -66.087 
0.884 10.962 -69.519 
0.801 11.172 -69.465 
-11.425 6.692 -71.199 
-11.345 6.956 -71.197 
-1.814 8.563 -66.662 
-1.769 8.853 -66.540 
8.461 0.084 -66.517 
8.499 0.451 -66.556 
-0.865 8.371 -68.889 
-0.759 8.545 -68.876 
4.208 -8.336 -69.458 
4.332 -8.177 -69.719 
-2.943 12.508 -66.144 
-2.871 12.688 -66.261 
4.185 9.878 -69.053 
4.182 10.085 -69.072 
7.453 2.910 -69.884 
7.634 3.084 -70.065 
-1.106 12.509 -65.634 
-1.041 12.685 -65.591 
5.220 0.539 -70.544 
5.345 0.741 -70.769 
-2.087 10.914 -71.991 
-1.952 11.163 -72.049 
6.165 -0.340 -72.587 
6.364 -0.048 -72.762 
-1.745 4.316 -72.171 
-1.621 4.520 -72.102 
5.911 -5.047 -68.095 
6.055 -4.798 -68.357 
-6.960 5.262 -64.785 
-6.959 5.501 -64.791 
7.742 2.845 -65.130 
7.806 3.211 -65.075 
0.414 -8.087 -69.814 
0.594 -7.823 -69.856 
2.877 3.568 -68.943 
2.983 3.806 -69.011 
-6.362 1.015 -66.175 
-6.363 1.305 -66.111 
-0.435 5.829 -74.411 
-0.345 6.117 -74.436 
9.354 2.791 -65.980 
9.423 3.014 -66.176 
-7.397 2.767 -69.165 
-7.295 2.981 -69.363 
-8.042 9.049 -66.652 
-7.993 9.212 -66.635 
4.486 5.072 -73.794 
4.625 5.293 -73.938 
-3.402 0.849 -69.048 
-3.306 1.182 -69.126 
-3.801 -1.180 -70.886 
-3.727 -0.816 -70.901 
4.532 0.674 -69.538 
4.622 0.893 -69.764 
9.712 10.099 -68.132 
9.831 10.282 -68.246 
6.557 7.570 -65.141 
6.640 7.702 -65.161 
6.775 -0.513 -71.920 
6.963 -0.335 -72.148 
3.811 0.924 -62.156 
3.929 1.072 -62.226 
2.406 -10.146 -67.652 
2.602 -10.040 -67.800 
-3.422 -6.391 -72.859 
-3.475 -6.170 -72.897 
5.315 11.557 -75.049 
5.256 11.602 -75.222 
-0.469 -5.778 -68.271 
-0.284 -5.638 -68.436 
-3.956 9.199 -63.178 
-3.946 9.312 -63.089 
-0.815 1.958 -65.359 
-0.761 2.156 -65.459 
-2.592 8.551 -61.414 
-2.462 8.767 -61.225 
-0.738 11.079 -70.330 
-0.749 11.269 -70.327 
1.664 -1.610 -69.202 
1.917 -1.275 -69.387 
7.451 0.617 -69.738 
7.661 0.848 -69.981 
1.100 -6.603 -66.077 
1.265 -6.440 -66.183 
11.808 -0.231 -71.750 
11.781 -0.071 -71.799 
-8.257 -0.088 -75.025 
-8.093 0.051 -75.093 
0.583 8.075 -76.516 
0.583 8.257 -76.602 
-1.382 -10.980 -70.035 
-1.208 -10.924 -70.235 
-9.866 4.103 -62.946 
-9.889 4.404 -62.946 
8.267 -5.924 -68.243 
8.466 -5.840 -68.448 
10.161 -0.105 -66.430 
10.209 0.154 -66.469 
-5.745 5.862 -63.509 
-5.783 6.172 -63.533 
10.194 -5.263 -63.426 
10.354 -5.081 -63.608 
9.464 12.042 -66.197 
9.489 12.095 -66.140 
-3.915 -6.028 -64.165 
-3.785 -6.017 -64.339 
2.044 -7.944 -66.107 
2.280 -7.751 -66.239 
-11.372 4.943 -69.798 
-11.442 5.297 -69.769 
-13.311 2.672 -67.980 
-13.233 2.884 -68.068 
-7.649 -0.021 -63.526 
-7.617 0.214 -63.724 
0.331 8.137 -64.579 
0.367 8.330 -64.417 
-7.410 -1.942 -67.865 
-7.231 -1.753 -68.145 
8.968 -3.643 -68.548 
9.051 -3.523 -68.649 
-0.782 0.253 -64.005 
-0.645 0.475 -64.004 
-14.847 -3.416 -69.676 
-14.767 -3.226 -69.879 
5.754 10.060 -72.481 
5.720 10.183 -72.565 
11.637 -7.358 -65.755 
11.681 -7.231 -65.755 
-5.188 12.091 -66.515 
-5.102 12.324 -66.507 
3.616 5.556 -66.010 
3.725 5.669 -66.125 
10.979 3.821 -75.447 
11.068 4.062 -75.734 
0.698 -0.440 -68.260 
0.961 -0.179 -68.454 
-3.555 6.957 -75.653 
-3.466 7.088 -75.662 
11.876 11.741 -73.880 
11.935 11.611 -73.934 
9.528 -2.713 -66.949 
9.572 -2.511 -67.015 
8.565 -3.900 -64.035 
8.708 -3.623 -64.062 
13.323 1.763 -67.392 
13.454 1.933 -67.453 
1.170 8.233 -66.948 
1.212 8.444 -66.873 
-10.298 -9.053 -67.503 
-10.282 -9.005 -67.591 
-0.506 -10.550 -65.728 
-0.394 -10.390 -65.718 
-5.984 7.678 -61.677 
-6.010 7.856 -61.677 
-9.931 11.139 -66.311 
-9.952 11.459 -66.291 
-1.235 11.424 -64.114 
-1.233 11.661 -64.005 
7.835 4.091 -68.208 
7.970 4.316 -68.304 
-11.749 -8.230 -67.224 
-11.663 -8.131 -67.280 
2.291 -0.186 -64.088 
2.365 0.010 -64.011 
6.372 -2.501 -70.060 
6.445 -2.274 -70.384 
-1.597 12.551 -70.803 
-1.678 12.688 -70.737 
10.371 -5.757 -66.713 
10.476 -5.532 -66.911 
-2.701 2.643 -62.580 
-2.675 2.801 -62.639 
-13.938 -4.054 -70.395 
-13.980 -3.781 -70.586 
5.974 10.992 -70.166 
5.888 11.113 -70.346 
10.858 0.085 -65.064 
10.926 0.468 -65.062 
14.896 -5.381 -70.265 
15.100 -5.336 -70.207 
5.837 -9.983 -72.300 
5.985 -9.939 -72.716 
3.476 -11.388 -65.159 
3.606 -11.251 -65.249 
-5.909 6.829 -62.612 
-6.013 7.114 -62.466 
-5.411 6.215 -73.902 
-5.358 6.375 -73.879 
8.476 -1.845 -68.143 
8.559 -1.531 -68.235 
14.347 2.782 -67.825 
14.556 2.866 -67.999 
11.338 11.625 -70.347 
11.422 11.434 -70.411 
7.287 -11.264 -66.103 
7.318 -11.167 -66.374 
-8.282 -6.271 -68.227 
-8.219 -6.188 -68.439 
-8.765 1.897 -63.670 
-8.682 2.092 -63.753 
-2.503 7.827 -73.939 
-2.358 7.991 -74.033 
-8.940 5.685 -65.671 
-8.926 5.940 -65.749 
15.030 7.093 -67.472 
15.202 7.250 -67.597 
4.053 5.180 -63.414 
4.053 5.422 -63.511 
-1.951 -9.596 -68.348 
-1.799 -9.564 -68.465 
-7.640 8.475 -63.391 
-7.636 8.834 -63.506 
-0.143 1.673 -72.176 
-0.013 1.900 -72.338 
11.690 -3.024 -68.628 
11.634 -2.954 -68.545 
3.293 11.536 -70.422 
3.157 11.713 -70.410 
6.501 3.323 -66.308 
6.545 3.649 -66.512 
3.587 -5.005 -64.604 
3.920 -4.831 -65.069 
-11.946 11.949 -64.978 
-11.780 12.062 -64.841 
-1.980 -3.395 -65.472 
-1.911 -3.203 -65.722 
-10.655 10.620 -70.327 
-10.552 10.807 -70.369 
-3.585 7.389 -64.543 
-3.489 7.609 -64.404 
-9.014 -12.605 -66.637 
-8.885 -12.574 -66.843 
11.616 2.324 -65.625 
11.636 2.588 -65.689 
-8.303 3.244 -69.610 
-8.164 3.477 -69.695 
-7.313 1.590 -61.425 
-7.338 1.750 -61.524 
5.121 -9.223 -67.590 
5.239 -9.092 -67.907 
-1.325 -11.729 -65.141 
-1.100 -11.646 -65.111 
8.403 0.660 -63.121 
8.469 0.990 -63.065 
4.563 -9.046 -69.349 
4.716 -8.872 -69.607 
-4.133 12.101 -74.553 
-4.185 12.182 -74.580 
7.285 -1.703 -72.418 
7.514 -1.489 -72.663 
-5.256 5.304 -60.391 
-5.367 5.367 -60.524 
7.407 -3.415 -67.640 
7.489 -3.149 -67.970 
4.125 -1.182 -71.417 
4.197 -0.955 -71.590 
0.656 4.311 -75.953 
0.698 4.459 -75.908 
5.399 -12.330 -66.729 
5.437 -12.270 -66.953 
13.320 -2.373 -68.867 
13.178 -2.311 -68.820 
-14.161 12.001 -67.405 
-14.250 12.053 -67.298 
4.698 9.413 -75.303 
4.591 9.600 -75.530 
-9.948 5.636 -64.343 
-9.975 5.965 -64.419 
10.456 -5.713 -68.857 
10.558 -5.612 -69.080 
-2.885 1.618 -69.045 
-2.706 1.890 -69.069 
-6.597 -4.443 -67.949 
-6.390 -4.281 -68.243 
-15.309 9.954 -78.132 
-15.299 9.921 -78.022 
11.970 -0.166 -67.003 
12.079 -0.028 -67.023 
-11.685 -0.118 -66.285 
-11.617 0.219 -66.682 
-5.558 -1.894 -69.917 
-5.557 -1.549 -69.940 
-12.248 0.728 -67.407 
-12.275 1.110 -67.767 
12.817 8.282 -72.597 
13.022 8.235 -72.750 
-9.758 -6.904 -62.760 
-9.494 -6.690 -63.068 
-6.320 -9.776 -73.612 
-6.292 -9.649 -73.694 
-0.149 -0.449 -62.976 
-0.053 -0.494 -63.167 
4.292 -11.753 -67.049 
4.308 -11.769 -67.191 
-15.111 3.769 -71.110 
-15.068 3.991 -71.085 
-3.597 5.159 -61.958 
-3.562 5.379 -61.991 
1.572 -6.261 -68.804 
1.747 -6.026 -68.955 
0.115 0.965 -73.451 
0.201 1.181 -73.569 
-1.015 -12.891 -67.176 
-0.858 -12.771 -67.266 
14.125 11.749 -68.584 
14.195 11.629 -68.553 
-0.901 10.564 -66.343 
-0.854 10.852 -66.271 
11.582 5.517 -69.300 
11.717 5.591 -69.448 
15.002 8.032 -71.525 
15.179 8.113 -71.856 
5.858 7.821 -72.976 
5.795 8.059 -73.152 
15.207 0.511 -66.730 
15.267 0.655 -66.883 
-0.897 -10.977 -65.103 
-0.772 -10.844 -65.144 
3.455 -2.768 -65.143 
3.805 -2.519 -65.393 
-7.371 -9.601 -68.803 
-7.308 -9.487 -68.934 
3.677 -7.947 -73.980 
3.773 -7.819 -74.243 
16.788 -0.325 -67.576 
16.742 -0.236 -67.586 
15.213 7.153 -70.310 
15.357 7.318 -70.510 
-13.267 0.642 -75.936 
-13.372 0.778 -76.026 
-15.676 7.171 -75.832 
-15.683 7.152 -75.682 
-8.822 9.352 -71.552 
-8.781 9.424 -71.534 
14.640 4.568 -70.643 
14.849 4.733 -70.821 
14.087 0.506 -68.303 
14.111 0.558 -68.320 
16.351 3.971 -71.662 
16.379 4.029 -71.784 
6.747 -1.549 -65.748 
6.914 -1.184 -66.095 
3.451 -0.281 -73.639 
3.561 -0.094 -73.810 
-1.053 0.754 -64.877 
-0.944 1.068 -64.921 
6.818 -3.992 -66.468 
7.037 -3.773 -66.801 
4.128 -1.383 -68.955 
4.233 -1.250 -69.138 
-13.579 7.548 -68.347 
-13.651 7.792 -68.430 
8.926 -5.488 -66.489 
9.083 -5.268 -66.695 
-5.417 -7.640 -71.886 
-5.294 -7.473 -72.058 
8.164 -9.735 -67.049 
8.220 -9.423 -67.115 
-4.964 -7.725 -65.684 
-4.771 -7.752 -66.033 
-4.843 9.464 -65.071 
-4.789 9.707 -64.929 
-11.602 11.356 -66.034 
-11.632 11.536 -65.887 
9.487 -2.908 -70.223 
9.467 -2.875 -70.309 
12.539 8.368 -68.097 
12.555 8.414 -68.032 
8.201 -7.748 -72.852 
8.406 -7.693 -73.038 
-15.164 8.565 -69.755 
-15.338 8.628 -69.723 
17.011 8.254 -66.988 
17.186 8.431 -67.010 
-9.139 7.497 -75.391 
[...]
POINT_DATA 1050 
SCALARS Umean double 1 
LOOKUP_TABLE default
0.10386 
0.10386 
0.12562 
0.12562 
0.15673 
0.15673 
0.10628 
0.10628 
0.11050 
0.11050 
0.16836 
0.16836 
0.16052 
0.16052 
0.11133 
0.11133 
0.15384 
0.15384 
0.11703 
0.11703 
0.12435 
0.12435 
0.07586 
0.07586 
0.13964 
0.13964 
0.18033 
0.18033 
0.09079 
0.09079 
0.11065 
0.11065 
0.15902 
0.15902 
0.11261 
0.11261 
0.18153 
0.18153 
0.10712 
0.10712 
0.15174 
0.15174 
0.08377 
0.08377 
0.10887 
0.10887 
0.13845 
0.13845 
0.12320 
0.12320 
0.10580 
0.10580 
0.08061 
0.08061 
0.08971 
0.08971 
0.15075 
0.15075 
0.15979 
0.15979 
0.14868 
0.14868 
0.08058 
0.08058 
0.10048 
0.10048 
0.11609 
0.11609 
0.13793 
0.13793 
0.15891 
0.15891 
0.18551 
0.18551 
0.10208 
0.10208 
0.16491 
0.16491 
0.11322 
0.11322 
0.10395 
0.10395 
0.15476 
0.15476 
0.09624 
0.09624 
0.16360 
0.16360 
0.14456 
0.14456 
0.19716 
0.19716 
0.12425 
0.12425 
0.19454 
0.19454 
0.11954 
0.11954 
0.18780 
0.18780 
0.16114 
0.16114 
0.13463 
0.13463 
0.14849 
0.14849 
0.15138 
0.15138 
0.15240 
0.15240 
0.15444 
0.15444 
0.08553 
0.08553 
0.14908 
0.14908 
0.17762 
0.17762 
0.18587 
0.18587 
0.16366 
0.16366 
0.12313 
0.12313 
0.07860 
0.07860 
0.17249 
0.17249 
0.10091 
0.10091 
0.13375 
0.13375 
0.11521 
0.11521 
0.09412 
0.09412 
0.14235 
0.14235 
0.07209 
0.07209 
0.11415 
0.11415 
0.15754 
0.15754 
0.09517 
0.09517 
0.22938 
0.22938 
0.19781 
0.19781 
0.12750 
0.12750 
0.08475 
0.08475 
0.11274 
0.11274 
0.10065 
0.10065 
0.13547 
0.13547 
0.15094 
0.15094 
0.14890 
0.14890 
0.13314 
0.13314 
0.15662 
0.15662 
0.15153 
0.15153 
0.04087 
0.04087 
0.10874 
0.10874 
0.16611 
0.16611 
0.18101 
0.18101 
0.12121 
0.12121 
0.15448 
0.15448 
0.12727 
0.12727 
0.19116 
0.19116 
0.08873 
0.08873 
0.13044 
0.13044 
0.14466 
0.14466 
0.07639 
0.07639 
0.06720 
0.06720 
0.12425 
0.12425 
0.09731 
0.09731 
0.19259 
0.19259 
0.20912 
0.20912 
0.07931 
0.07931 
0.07632 
0.07632 
0.10851 
0.10851 
0.15645 
0.15645 
0.11156 
0.11156 
0.11392 
0.11392 
0.05075 
0.05075 
0.09778 
0.09778 
0.08994 
0.08994 
0.16066 
0.16066 
0.13044 
0.13044 
0.13970 
0.13970 
0.07130 
0.07130 
0.11160 
0.11160 
0.20114 
0.20114 
0.08615 
0.08615 
0.15879 
0.15879 
0.08532 
0.08532 
0.16791 
0.16791 
0.11666 
0.11666 
0.19450 
0.19450 
0.10840 
0.10840 
0.22186 
0.22186 
0.10461 
0.10461 
0.16834 
0.16834 
0.08506 
0.08506 
0.16878 
0.16878 
0.14231 
0.14231 
0.10912 
0.10912 
0.14475 
0.14475 
0.11811 
0.11811 
0.11380 
0.11380 
0.11912 
0.11912 
0.13351 
0.13351 
0.13215 
0.13215 
0.13036 
0.13036 
0.09723 
0.09723 
0.18850 
0.18850 
0.15384 
0.15384 
0.06108 
0.06108 
0.11177 
0.11177 
0.19354 
0.19354 
0.29891 
0.29891 
0.12155 
0.12155 
0.16134 
0.16134 
0.10879 
0.10879 
0.13869 
0.13869 
0.12251 
0.12251 
0.13619 
0.13619 
0.14216 
0.14216 
0.09490 
0.09490 
0.18137 
0.18137 
0.12084 
0.12084 
0.17058 
0.17058 
0.17338 
0.17338 
0.04998 
0.04998 
0.19891 
0.19891 
0.09217 
0.09217 
0.21586 
0.21586 
0.14718 
0.14718 
0.08015 
0.08015 
0.11749 
0.11749 
0.08096 
0.08096 
0.07429 
0.07429 
0.15648 
0.15648 
0.16937 
0.16937 
0.13260 
0.13260 
0.16325 
0.16325 
0.19719 
0.19719 
0.05764 
0.05764 
0.08849 
0.08849 
0.26258 
0.26258 
0.17288 
0.17288 
0.26280 
0.26280 
0.13004 
0.13004 
0.22932 
0.22932 
0.07687 
0.07687 
0.10923 
0.10923 
0.07190 
0.07190 
0.11375 
0.11375 
0.11260 
0.11260 
0.16481 
0.16481 
0.13036 
0.13036 
0.10857 
0.10857 
0.07117 
0.07117 
0.15028 
0.15028 
0.10678 
0.10678 
0.19200 
0.19200 
0.15132 
0.15132 
0.10925 
0.10925 
0.09353 
0.09353 
0.24850 
0.24850 
0.09237 
0.09237 
0.15392 
0.15392 
0.05034 
0.05034 
0.14829 
0.14829 
0.09698 
0.09698 
0.07568 
0.07568 
0.04239 
0.04239 
0.16015 
0.16015 
0.02987 
0.02987 
0.06898 
0.06898 
0.26529 
0.26529 
0.13812 
0.13812 
0.16764 
0.16764 
0.22738 
0.22738 
0.12470 
0.12470 
0.13380 
0.13380 
0.16992 
0.16992 
0.13472 
0.13472 
0.16189 
0.16189 
0.19986 
0.19986 
0.14329 
0.14329 
0.11716 
0.11716 
0.04713 
0.04713 
0.04061 
0.04061 
0.14111 
0.14111 
0.09390 
0.09390 
0.12494 
0.12494 
0.10819 
0.10819 
0.09926 
0.09926 
0.11359 
0.11359 
0.08569 
0.08569 
0.23514 
0.23514 
0.17775 
0.17775 
0.13750 
0.13750 
0.15785 
0.15785 
0.14626 
0.14626 
0.11538 
0.11538 
0.08315 
0.08315 
0.07722 
0.07722 
0.11630 
0.11630 
0.15724 
0.15724 
0.07597 
0.07597 
0.03857 
0.03857 
0.13652 
0.13652 
0.08654 
0.08654 
0.22058 
0.22058 
0.08534 
0.08534 
0.08151 
0.08151 
0.07466 
0.07466 
0.11147 
0.11147 
0.10851 
0.10851 
0.05483 
0.05483 
0.09514 
0.09514 
0.11881 
0.11881 
0.04211 
0.04211 
0.06748 
0.06748 
0.23809 
0.23809 
0.12871 
0.12871 
0.15060 
0.15060 
0.06298 
0.06298 
0.19927 
0.19927 
0.17405 
0.17405 
0.14180 
0.14180 
0.10041 
0.10041 
0.07686 
0.07686 
0.14609 
0.14609 
0.16055 
0.16055 
0.07565 
0.07565 
0.15176 
0.15176 
0.09230 
0.09230 
0.12122 
0.12122 
0.11632 
0.11632 
0.09802 
0.09802 
0.10584 
0.10584 
0.15446 
0.15446 
0.06473 
0.06473 
0.18863 
0.18863 
0.10915 
0.10915 
0.14549 
0.14549 
0.11243 
0.11243 
0.15133 
0.15133 
0.14001 
0.14001 
0.14244 
0.14244 
0.25287 
0.25287 
0.06127 
0.06127 
0.13816 
0.13816 
0.13677 
0.13677 
0.12928 
0.12928 
0.19140 
0.19140 
0.08258 
0.08258 
0.09660 
0.09660 
0.15217 
0.15217 
0.13970 
0.13970 
0.16601 
0.16601 
0.12778 
0.12778 
0.09600 
0.09600 
0.11429 
0.11429 
0.03836 
0.03836 
0.09259 
0.09259 
0.10025 
0.10025 
0.18477 
0.18477 
0.16085 
0.16085 
0.07301 
0.07301 
0.11240 
0.11240 
0.13907 
0.13907 
0.06853 
0.06853 
0.22070 
0.22070 
0.11358 
0.11358 
0.12617 
0.12617 
0.03823 
0.03823 
0.11098 
0.11098 
0.18475 
0.18475 
0.15853 
0.15853 
0.12168 
0.12168 
0.11341 
0.11341 
0.17335 
0.17335 
0.10248 
0.10248 
0.21622 
0.21622 
0.07122 
0.07122 
0.16250 
0.16250 
0.10966 
0.10966 
0.14081 
0.14081 
0.09767 
0.09767 
0.12130 
0.12130 
0.08929 
0.08929 
0.19263 
0.19263 
0.17740 
0.17740 
0.09959 
0.09959 
0.10024 
0.10024 
0.19508 
0.19508 
0.12068 
0.12068 
0.07184 
0.07184 
0.11773 
0.11773 
0.10391 
0.10391 
0.06997 
0.06997 
0.12349 
0.12349 
0.12306 
0.12306 
0.11142 
0.11142 
0.14065 
0.14065 
0.11497 
0.11497 
0.09654 
0.09654 
0.17146 
0.17146 
0.13481 
0.13481 
0.16675 
0.16675 
0.24276 
0.24276 
0.17004 
0.17004 
0.22861 
0.22861 
0.16543 
0.16543 
0.10762 
0.10762 
0.13968 
0.13968 
0.14016 
0.14016 
0.22491 
0.22491 
0.12814 
0.12814 
0.13015 
0.13015 
0.13255 
0.13255 
0.14724 
0.14724 
0.20997 
0.20997 
0.15553 
0.15553 
0.19032 
0.19032 
0.05343 
0.05343 
0.11058 
0.11058 
0.19894 
0.19894 
0.13745 
0.13745 
0.13199 
0.13199 
0.15103 
0.15103 
0.21066 
0.21066 
0.20639 
0.20639 
0.07948 
0.07948 
0.08542 
0.08542 
0.22789 
0.22789 
0.11274 
0.11274 
0.16552 
0.16552 
0.14331 
0.14331 
0.10459 
0.10459 
0.06008 
0.06008 
0.12768 
0.12768 
0.13625 
0.13625 
0.23297 
0.23297 
0.22026 
0.22026 
0.07564 
0.07564 
0.12297 
0.12297 
0.15695 
0.15695 
0.15948 
0.15948 
0.09052 
0.09052 
0.14053 
0.14053 
0.06261 
0.06261 
0.11038 
0.11038 
0.07991 
0.07991 
0.33907 
0.33907 
0.20023 
0.20023 
0.12441 
0.12441 
0.13709 
0.13709 
0.11963 
0.11963 
0.10935 
0.10935 
0.08723 
0.08723 
0.06749 
0.06749 
0.13877 
0.13877 
0.11925 
0.11925 
0.13093 
0.13093 
0.18914 
0.18914 
0.08394 
0.08394 
0.09366 
0.09366 
0.15006 
0.15006 
0.17173 
0.17173 
0.21114 
0.21114 
0.15476 
0.15476 
0.08951 
0.08951 
0.11452 
0.11452 
0.09516 
0.09516 
0.05774 
0.05774 
0.13314 
0.13314 
0.06241 
0.06241 
0.12839 
0.12839 
0.09614 
0.09614 
0.10567 
0.10567 
0.18569 
0.18569 
0.19958 
0.19958 
0.07735 
0.07735 
0.10147 
0.10147 
0.12249 
0.12249 
0.19452 
0.19452 
0.21439 
0.21439 
0.09401 
0.09401 
0.12215 
0.12215 
0.09174 
0.09174 
0.11072 
0.11072 
0.04563 
0.04563 
0.11859 
0.11859 
0.12727 
0.12727 
0.17587 
0.17587 
0.15819 
0.15819 
0.02787 
0.02787 
0.12623 
0.12623 
0.17105 
0.17105 
0.18206 
0.18206 
0.16243 
0.16243 
0.14259 
0.14259 
0.12863 
0.12863 
0.06465 
0.06465 
0.13555 
0.13555 
0.09604 
0.09604 
0.13376 
0.13376 
0.15866 
0.15866 
0.14097 
0.14097 
0.04594 
0.04594 
0.11337 
0.11337 
0.19277 
0.19277 
0.12245 
0.12245 
0.06418 
0.06418 
0.12615 
0.12615 
0.20617 
0.20617 
0.09029 
0.09029 
0.14529 
0.14529 
0.05185 
0.05185 
0.19992 
0.19992 
0.13527 
0.13527 
0.07323 
0.07323 
0.13658 
0.13658 
0.10627 
0.10627 
0.15389 
0.15389 
0.15439 
0.15439 
0.09114 
0.09114 
0.16967 
0.16967 
0.14152 
0.14152 
0.11882 
0.11882 
0.10334 
0.10334 
0.15250 
0.15250 
0.15810 
0.15810 
0.11685 
0.11685 
0.06512 
0.06512 
0.04204 
0.04204 
0.10893 
0.10893 
0.08455 
0.08455 
0.20738 
0.20738 
0.13247 
0.13247 
0.20687 
0.20687 
0.25202 
0.25202 
0.13917 
0.13917 
0.18336 
0.18336 
0.16993 
0.16993 
0.16843 
0.16843 
0.07131 
0.07131 
0.14997 
0.14997 
0.06271 
0.06271 
0.14666 
0.14666 
0.27219 
0.27219 
0.12913 
0.12913 
0.11608 
0.11608 
0.08346 
0.08346 
0.07315 
0.07315 
0.14540 
0.14540 
0.07425 
0.07425 
0.05515 
0.05515 
0.07536 
0.07536 
0.12110 
0.12110 
0.19826 
0.19826 
0.12297 
0.12297 
0.11379 
0.11379 
0.17466 
0.17466 
0.11471 
0.11471 
0.08853 
0.08853 
0.17523 
0.17523 
0.10765 
0.10765 
0.13586 
0.13586 
0.13924 
0.13924 
0.08517 
0.08517 
0.16376 
0.16376 
0.10886 
0.10886 
0.17556 
0.17556 
0.10287 
0.10287 
0.15248 
0.15248 
0.14851 
0.14851 
0.09701 
0.09701 
0.06534 
0.06534 
0.24702 
0.24702 
0.14947 
0.14947 
0.09770 
0.09770 
0.12667 
0.12667 
0.13867 
0.13867 
0.20777 
0.20777 
0.10766 
0.10766 
0.06034 
0.06034 
0.15434 
0.15434 
0.13466 
0.13466 
0.11543 
0.11543 
0.09848 
0.09848 
0.13713 
0.13713 
0.11533 
0.11533 
0.23680 
0.23680 
0.11502 
0.11502 
0.14395 
0.14395 
SCALARS Umean_X double 1 
LOOKUP_TABLE default
0.02400 
0.02400 
0.06200 
0.06200 
0.06300 
0.06300 
0.02100 
0.02100 
0.07000 
0.07000 
0.05600 
0.05600 
0.09450 
0.09450 
0.04000 
0.04000 
0.08500 
0.08500 
-0.00250 
-0.00250 
0.03850 
0.03850 
0.03700 
0.03700 
0.00950 
0.00950 
0.07350 
0.07350 
0.02300 
0.02300 
0.01550 
0.01550 
0.06350 
0.06350 
0.06450 
0.06450 
0.09400 
0.09400 
0.01850 
0.01850 
0.03200 
0.03200 
0.06450 
0.06450 
0.03400 
0.03400 
-0.03750 
-0.03750 
0.03300 
0.03300 
0.00250 
0.00250 
0.01800 
0.01800 
0.03000 
0.03000 
0.06000 
0.06000 
0.00750 
0.00750 
0.04700 
0.04700 
-0.03500 
-0.03500 
0.00250 
0.00250 
-0.04150 
-0.04150 
0.04000 
0.04000 
0.02250 
0.02250 
0.01900 
0.01900 
0.05300 
0.05300 
0.06200 
0.06200 
0.03600 
0.03600 
-0.00150 
-0.00150 
0.09050 
0.09050 
0.03250 
0.03250 
0.06250 
0.06250 
0.06750 
0.06750 
0.09950 
0.09950 
0.06200 
0.06200 
0.07200 
0.07200 
0.00050 
0.00050 
0.03200 
0.03200 
0.09000 
0.09000 
0.05300 
0.05300 
-0.00050 
-0.00050 
0.04500 
0.04500 
0.03450 
0.03450 
0.05100 
0.05100 
0.02450 
0.02450 
0.06950 
0.06950 
0.04800 
0.04800 
0.03700 
0.03700 
0.04500 
0.04500 
0.05950 
0.05950 
0.04150 
0.04150 
0.09400 
0.09400 
0.05900 
0.05900 
0.09800 
0.09800 
-0.02650 
-0.02650 
-0.02950 
-0.02950 
0.09250 
0.09250 
0.00500 
0.00500 
0.02700 
0.02700 
0.06500 
0.06500 
-0.00550 
-0.00550 
0.12650 
0.12650 
0.10500 
0.10500 
0.08250 
0.08250 
-0.01350 
-0.01350 
0.08200 
0.08200 
-0.00000 
-0.00000 
0.08700 
0.08700 
-0.01150 
-0.01150 
0.09950 
0.09950 
0.02400 
0.02400 
-0.01900 
-0.01900 
0.08000 
0.08000 
0.01250 
0.01250 
0.06500 
0.06500 
0.11800 
0.11800 
-0.03500 
-0.03500 
0.03900 
0.03900 
0.01600 
0.01600 
0.01800 
0.01800 
0.08950 
0.08950 
0.04150 
0.04150 
0.06850 
0.06850 
0.04000 
0.04000 
-0.01700 
-0.01700 
0.02200 
0.02200 
0.04300 
0.04300 
0.05450 
0.05450 
0.04450 
0.04450 
0.13150 
0.13150 
0.04450 
0.04450 
0.02950 
0.02950 
0.02200 
0.02200 
0.07150 
0.07150 
0.06550 
0.06550 
0.02100 
0.02100 
0.00800 
0.00800 
0.05600 
0.05600 
-0.01300 
-0.01300 
-0.01050 
-0.01050 
0.00100 
0.00100 
0.06750 
0.06750 
0.04300 
0.04300 
0.03700 
0.03700 
0.03650 
0.03650 
-0.04050 
-0.04050 
0.05250 
0.05250 
0.01300 
0.01300 
-0.02100 
-0.02100 
-0.04300 
-0.04300 
0.03400 
0.03400 
0.10200 
0.10200 
0.07400 
0.07400 
0.06500 
0.06500 
-0.05200 
-0.05200 
0.02650 
0.02650 
0.04150 
0.04150 
0.10450 
0.10450 
0.04200 
0.04200 
0.01550 
0.01550 
0.03150 
0.03150 
0.04150 
0.04150 
0.07250 
0.07250 
0.00700 
0.00700 
0.08600 
0.08600 
-0.00000 
-0.00000 
0.07600 
0.07600 
0.00200 
0.00200 
0.06500 
0.06500 
-0.02800 
-0.02800 
-0.06800 
-0.06800 
0.02200 
0.02200 
0.16650 
0.16650 
0.08300 
0.08300 
0.03450 
0.03450 
0.05150 
0.05150 
0.04800 
0.04800 
0.06450 
0.06450 
0.01000 
0.01000 
0.06950 
0.06950 
-0.01250 
-0.01250 
0.05900 
0.05900 
0.11250 
0.11250 
0.03300 
0.03300 
0.07650 
0.07650 
-0.02600 
-0.02600 
0.11450 
0.11450 
-0.05550 
-0.05550 
0.04100 
0.04100 
0.03600 
0.03600 
0.02100 
0.02100 
0.01900 
0.01900 
-0.07100 
-0.07100 
-0.04450 
-0.04450 
-0.05350 
-0.05350 
-0.01350 
-0.01350 
0.05100 
0.05100 
0.08950 
0.08950 
0.10350 
0.10350 
0.00500 
0.00500 
0.05450 
0.05450 
0.03400 
0.03400 
0.00050 
0.00050 
-0.01350 
-0.01350 
0.10250 
0.10250 
0.13200 
0.13200 
0.01400 
0.01400 
0.04800 
0.04800 
0.00800 
0.00800 
0.02150 
0.02150 
0.01750 
0.01750 
0.08750 
0.08750 
0.04300 
0.04300 
0.07850 
0.07850 
0.03500 
0.03500 
0.02350 
0.02350 
0.06750 
0.06750 
0.08850 
0.08850 
-0.03150 
-0.03150 
0.03000 
0.03000 
0.06250 
0.06250 
0.17500 
0.17500 
0.03150 
0.03150 
0.04800 
0.04800 
-0.02300 
-0.02300 
0.07200 
0.07200 
-0.05250 
-0.05250 
-0.00350 
-0.00350 
0.02050 
0.02050 
0.10450 
0.10450 
0.01200 
0.01200 
0.01400 
0.01400 
0.08350 
0.08350 
0.05500 
0.05500 
0.05450 
0.05450 
0.10950 
0.10950 
0.05250 
0.05250 
-0.03600 
-0.03600 
0.07850 
0.07850 
0.06150 
0.06150 
0.02800 
0.02800 
0.09650 
0.09650 
0.02700 
0.02700 
-0.01500 
-0.01500 
-0.01000 
-0.01000 
0.00800 
0.00800 
0.10250 
0.10250 
-0.08700 
-0.08700 
0.08750 
0.08750 
0.01700 
0.01700 
0.07850 
0.07850 
-0.01100 
-0.01100 
-0.00500 
-0.00500 
0.04350 
0.04350 
0.08550 
0.08550 
0.07250 
0.07250 
0.07550 
0.07550 
-0.03100 
-0.03100 
0.03100 
0.03100 
0.02900 
0.02900 
0.02750 
0.02750 
0.05650 
0.05650 
0.10150 
0.10150 
0.04950 
0.04950 
0.02700 
0.02700 
-0.02800 
-0.02800 
-0.01750 
-0.01750 
0.13500 
0.13500 
0.00100 
0.00100 
-0.03100 
-0.03100 
0.04300 
0.04300 
0.08150 
0.08150 
0.03650 
0.03650 
-0.00450 
-0.00450 
0.07700 
0.07700 
0.06600 
0.06600 
0.03350 
0.03350 
0.06000 
0.06000 
0.07800 
0.07800 
0.04800 
0.04800 
0.01400 
0.01400 
0.01500 
0.01500 
0.08400 
0.08400 
0.05650 
0.05650 
0.05800 
0.05800 
0.03100 
0.03100 
-0.02100 
-0.02100 
0.06350 
0.06350 
0.07900 
0.07900 
0.06600 
0.06600 
0.10050 
0.10050 
-0.03350 
-0.03350 
0.02400 
0.02400 
-0.00450 
-0.00450 
0.06600 
0.06600 
0.09550 
0.09550 
0.08550 
0.08550 
0.04600 
0.04600 
-0.05250 
-0.05250 
0.05550 
0.05550 
0.02950 
0.02950 
-0.07050 
-0.07050 
0.03100 
0.03100 
0.09050 
0.09050 
0.02250 
0.02250 
0.01700 
0.01700 
0.02700 
0.02700 
0.11500 
0.11500 
0.05500 
0.05500 
0.05950 
0.05950 
0.14300 
0.14300 
0.06350 
0.06350 
0.00100 
0.00100 
0.01500 
0.01500 
0.01350 
0.01350 
-0.03950 
-0.03950 
0.05650 
0.05650 
0.05200 
0.05200 
0.06350 
0.06350 
0.01300 
0.01300 
0.04150 
0.04150 
0.03550 
0.03550 
0.01400 
0.01400 
-0.01500 
-0.01500 
0.00600 
0.00600 
0.04050 
0.04050 
0.03250 
0.03250 
0.05100 
0.05100 
0.05000 
0.05000 
0.00250 
0.00250 
0.05200 
0.05200 
0.01800 
0.01800 
0.01550 
0.01550 
0.10050 
0.10050 
-0.02450 
-0.02450 
0.01950 
0.01950 
0.04950 
0.04950 
0.05400 
0.05400 
0.00750 
0.00750 
0.14650 
0.14650 
0.04800 
0.04800 
0.07100 
0.07100 
0.01650 
0.01650 
0.13150 
0.13150 
0.00300 
0.00300 
-0.03300 
-0.03300 
0.03700 
0.03700 
0.04000 
0.04000 
0.07000 
0.07000 
0.02500 
0.02500 
0.00050 
0.00050 
0.07000 
0.07000 
0.04000 
0.04000 
-0.00600 
-0.00600 
0.09800 
0.09800 
0.03700 
0.03700 
-0.02900 
-0.02900 
0.04500 
0.04500 
0.08600 
0.08600 
0.02150 
0.02150 
0.08450 
0.08450 
-0.01450 
-0.01450 
0.05050 
0.05050 
0.06300 
0.06300 
0.10250 
0.10250 
0.04900 
0.04900 
0.05250 
0.05250 
0.10900 
0.10900 
0.08500 
0.08500 
0.14400 
0.14400 
0.03850 
0.03850 
-0.07150 
-0.07150 
0.00600 
0.00600 
0.12300 
0.12300 
-0.01600 
-0.01600 
0.03250 
0.03250 
0.02400 
0.02400 
0.10400 
0.10400 
0.11400 
0.11400 
0.03650 
0.03650 
0.11400 
0.11400 
-0.04000 
-0.04000 
0.00350 
0.00350 
0.01350 
0.01350 
0.02200 
0.02200 
0.04200 
0.04200 
0.13000 
0.13000 
0.03400 
0.03400 
0.09650 
0.09650 
0.00800 
0.00800 
0.01950 
0.01950 
0.04050 
0.04050 
0.06700 
0.06700 
0.09900 
0.09900 
0.08000 
0.08000 
0.08750 
0.08750 
0.06000 
0.06000 
0.07050 
0.07050 
0.03300 
0.03300 
0.09550 
0.09550 
0.15700 
0.15700 
0.00500 
0.00500 
0.04700 
0.04700 
0.01750 
0.01750 
0.04700 
0.04700 
0.04800 
0.04800 
0.10250 
0.10250 
0.04850 
0.04850 
0.02650 
0.02650 
0.00900 
0.00900 
0.07200 
0.07200 
0.08050 
0.08050 
0.07600 
0.07600 
0.08150 
0.08150 
0.02200 
0.02200 
0.08050 
0.08050 
0.07500 
0.07500 
-0.02400 
-0.02400 
0.04950 
0.04950 
0.03700 
0.03700 
0.01000 
0.01000 
0.14450 
0.14450 
0.01000 
0.01000 
0.03000 
0.03000 
0.09250 
0.09250 
0.05750 
0.05750 
0.02350 
0.02350 
0.08300 
0.08300 
0.08100 
0.08100 
-0.01700 
-0.01700 
0.06050 
0.06050 
0.02900 
0.02900 
0.03350 
0.03350 
-0.02800 
-0.02800 
0.03050 
0.03050 
0.07950 
0.07950 
0.06200 
0.06200 
0.04550 
0.04550 
0.08300 
0.08300 
-0.02050 
-0.02050 
0.09000 
0.09000 
-0.00500 
-0.00500 
0.04800 
0.04800 
0.10400 
0.10400 
0.04000 
0.04000 
0.06850 
0.06850 
0.03900 
0.03900 
-0.09500 
-0.09500 
0.00900 
0.00900 
0.02000 
0.02000 
-0.00800 
-0.00800 
0.05300 
0.05300 
-0.00400 
-0.00400 
0.01350 
0.01350 
0.04600 
0.04600 
0.06300 
0.06300 
-0.00050 
-0.00050 
0.02550 
0.02550 
0.04600 
0.04600 
0.09150 
0.09150 
-0.01050 
-0.01050 
0.04700 
0.04700 
0.09100 
0.09100 
0.09200 
0.09200 
0.06250 
0.06250 
0.09000 
0.09000 
0.03550 
0.03550 
0.04450 
0.04450 
0.06250 
0.06250 
-0.02850 
-0.02850 
-0.01050 
-0.01050 
0.08700 
0.08700 
0.15100 
0.15100 
0.03950 
0.03950 
-0.04400 
-0.04400 
0.02700 
0.02700 
-0.00500 
-0.00500 
0.06450 
0.06450 
0.00550 
0.00550 
0.08850 
0.08850 
0.08950 
0.08950 
-0.05500 
-0.05500 
0.02700 
0.02700 
0.03900 
0.03900 
0.04900 
0.04900 
-0.00100 
-0.00100 
0.06350 
0.06350 
-0.00850 
-0.00850 
-0.03550 
-0.03550 
0.04550 
0.04550 
0.07350 
0.07350 
0.04750 
0.04750 
0.01350 
0.01350 
0.03750 
0.03750 
0.02100 
0.02100 
0.08650 
0.08650 
-0.04700 
-0.04700 
0.01900 
0.01900 
0.12100 
0.12100 
0.11750 
0.11750 
0.03650 
0.03650 
0.06450 
0.06450 
-0.00800 
-0.00800 
-0.06150 
-0.06150 
-0.00950 
-0.00950 
0.03550 
0.03550 
0.01500 
0.01500 
0.08650 
0.08650 
0.08050 
0.08050 
0.06300 
0.06300 
0.04300 
0.04300 
-0.01000 
-0.01000 
0.04650 
0.04650 
0.02550 
0.02550 
0.03300 
0.03300 
0.01550 
0.01550 
0.06750 
0.06750 
0.03150 
0.03150 
0.05850 
0.05850 
0.02750 
0.02750 
0.02250 
0.02250 
0.02300 
0.02300 
0.03700 
0.03700 
0.06800 
0.06800 
0.03300 
0.03300 
0.02950 
0.02950 
0.05650 
0.05650 
0.03850 
0.03850 
-0.00450 
-0.00450 
0.06200 
0.06200 
0.07300 
0.07300 
0.02150 
0.02150 
-0.05400 
-0.05400 
-0.03450 
-0.03450 
0.07450 
0.07450 
0.01850 
0.01850 
0.05300 
0.05300 
0.12750 
0.12750 
-0.00500 
-0.00500 
0.00400 
0.00400 
0.05200 
0.05200 
0.12800 
0.12800 
-0.04000 
-0.04000 
0.01000 
0.01000 
-0.03000 
-0.03000 
0.06750 
0.06750 
0.02500 
0.02500 
0.03950 
0.03950 
0.10500 
0.10500 
0.01200 
0.01200 
0.13000 
0.13000 
0.01900 
0.01900 
0.08500 
0.08500 
SCALARS Umean_Y double 1 
LOOKUP_TABLE default
0.10000 
0.10000 
0.10000 
0.10000 
0.14250 
0.14250 
0.10150 
0.10150 
0.07300 
0.07300 
0.14800 
0.14800 
0.12900 
0.12900 
0.08300 
0.08300 
0.09900 
0.09900 
0.11700 
0.11700 
0.11800 
0.11800 
0.06600 
0.06600 
0.12400 
0.12400 
0.16450 
0.16450 
0.08700 
0.08700 
0.10950 
0.10950 
0.09150 
0.09150 
0.07300 
0.07300 
0.13400 
0.13400 
0.10200 
0.10200 
0.13050 
0.13050 
0.05100 
0.05100 
0.09750 
0.09750 
0.13100 
0.13100 
0.10900 
0.10900 
0.09750 
0.09750 
0.06850 
0.06850 
0.07250 
0.07250 
0.13500 
0.13500 
0.08900 
0.08900 
0.14100 
0.14100 
0.07150 
0.07150 
0.07700 
0.07700 
0.10500 
0.10500 
0.13200 
0.13200 
0.14500 
0.14500 
0.18350 
0.18350 
0.08700 
0.08700 
0.07950 
0.07950 
0.09000 
0.09000 
0.10350 
0.10350 
0.08700 
0.08700 