# vtk DataFile Version 2.1 
Trajects from timestep 49 with color option 
ASCII 
 
DATASET POLYDATA POINTS 1004 float 
-5.522 7.962 -73.014 
-5.561 8.087 -73.116 
5.581 8.963 -70.919 
5.516 9.033 -71.002 
0.612 5.594 -71.462 
0.610 5.714 -71.660 
-8.000 -6.788 -74.191 
-8.021 -6.667 -74.130 
-2.732 2.947 -72.401 
-2.637 3.145 -72.510 
-8.260 2.326 -72.714 
-8.256 2.318 -72.643 
8.392 3.462 -69.203 
8.417 3.634 -69.326 
0.817 -3.009 -70.243 
0.865 -2.763 -70.271 
8.791 4.906 -69.475 
8.787 5.128 -69.568 
5.338 2.803 -69.089 
5.377 2.894 -69.195 
6.087 7.077 -70.691 
5.919 7.151 -70.750 
-3.236 5.090 -69.172 
-3.222 5.354 -69.349 
1.436 1.518 -70.059 
1.554 1.654 -70.272 
3.619 3.884 -69.893 
3.613 4.056 -70.053 
1.466 4.488 -72.408 
1.438 4.587 -72.580 
1.783 -9.019 -73.059 
1.837 -8.806 -73.013 
-4.368 -7.806 -73.002 
-4.221 -7.699 -72.962 
-6.255 0.889 -67.489 
-6.271 1.194 -67.491 
-2.583 0.676 -71.789 
-2.430 0.880 -71.858 
7.365 -4.101 -71.489 
7.338 -4.045 -71.581 
-1.713 -0.440 -71.593 
-1.605 -0.255 -71.676 
1.043 12.393 -71.209 
0.931 12.460 -71.279 
7.232 5.233 -67.178 
7.320 5.320 -67.224 
-2.697 10.899 -69.871 
-2.887 11.020 -69.988 
8.062 4.311 -68.810 
8.060 4.456 -68.890 
-5.863 9.687 -73.495 
-5.927 9.822 -73.759 
5.228 4.828 -68.254 
5.291 4.925 -68.350 
-1.158 7.198 -71.885 
-1.163 7.311 -72.043 
-7.754 5.225 -69.553 
-7.691 5.275 -69.677 
12.493 -3.132 -69.343 
12.564 -2.980 -69.405 
-0.124 -5.289 -68.307 
0.081 -4.984 -68.425 
8.492 11.110 -69.891 
8.467 11.208 -70.033 
-11.462 5.621 -72.273 
-11.530 5.669 -72.294 
-1.846 5.267 -73.957 
-1.978 5.380 -74.120 
7.180 12.033 -70.518 
7.156 12.049 -70.662 
-5.513 2.122 -68.481 
-5.457 2.207 -68.417 
-5.908 -1.535 -70.325 
-5.845 -1.456 -70.258 
-0.562 0.193 -72.245 
-0.447 0.354 -72.366 
-2.929 -1.850 -73.897 
-2.908 -1.718 -73.887 
-0.428 -1.078 -70.753 
-0.371 -0.774 -70.816 
-6.067 2.071 -72.974 
-6.047 2.166 -73.006 
7.029 -1.199 -71.765 
7.059 -1.097 -71.986 
4.654 -3.483 -66.858 
4.798 -3.258 -66.978 
-9.028 2.894 -65.957 
-8.998 3.162 -65.868 
-4.119 1.035 -72.983 
-4.061 1.186 -73.022 
-0.934 1.563 -72.708 
-0.870 1.695 -72.892 
2.404 -4.314 -66.213 
2.594 -3.936 -66.423 
-11.966 0.030 -68.874 
-11.908 0.098 -68.834 
3.280 10.414 -68.398 
3.266 10.655 -68.494 
-11.817 -10.646 -69.398 
-11.768 -10.299 -69.426 
9.066 -4.084 -70.415 
9.084 -4.041 -70.543 
9.414 11.876 -68.430 
9.442 11.866 -68.564 
-1.057 9.366 -68.124 
-1.191 9.495 -68.115 
-5.587 -2.081 -68.510 
-5.576 -1.872 -68.347 
8.945 7.829 -67.637 
8.869 7.971 -67.787 
-12.365 8.267 -75.981 
-12.479 8.268 -76.059 
7.191 -5.135 -69.052 
7.278 -4.946 -69.059 
-8.282 11.913 -72.469 
-8.363 12.034 -72.448 
-6.341 9.456 -65.750 
-6.373 9.701 -65.867 
4.014 -5.380 -64.251 
4.156 -5.188 -64.434 
15.177 3.898 -71.329 
15.082 4.028 -71.479 
8.192 9.051 -75.296 
8.107 9.116 -75.402 
1.319 11.655 -65.229 
1.246 11.873 -65.314 
-9.499 12.525 -69.672 
-9.594 12.576 -69.692 
2.871 11.734 -68.605 
2.779 11.891 -68.724 
-2.696 8.155 -72.657 
-2.854 8.260 -72.820 
-10.383 -5.841 -68.084 
-10.265 -5.639 -67.973 
-3.206 6.822 -71.099 
-3.319 6.999 -71.263 
0.915 7.189 -63.054 
0.997 7.486 -63.059 
-13.008 2.191 -70.870 
-12.930 2.220 -70.901 
-5.008 -1.678 -68.482 
-4.957 -1.472 -68.385 
0.352 -9.885 -76.448 
0.470 -9.825 -76.429 
12.614 -4.317 -69.433 
12.656 -4.202 -69.511 
6.357 2.232 -65.673 
6.507 2.439 -65.674 
-3.133 -3.853 -66.508 
-2.940 -3.575 -66.353 
-15.463 12.022 -73.026 
-15.549 12.023 -73.018 
2.905 -0.810 -64.358 
3.134 -0.588 -64.440 
-7.437 2.296 -69.280 
-7.310 2.422 -69.294 
-12.667 1.683 -70.907 
-12.643 1.689 -70.973 
1.473 -3.030 -70.897 
1.492 -2.795 -70.820 
-8.703 3.063 -63.254 
-8.674 3.285 -63.218 
0.237 -4.099 -64.926 
0.497 -3.865 -65.076 
-4.139 2.857 -68.487 
-4.119 3.056 -68.541 
-7.387 -4.716 -66.288 
-7.284 -4.491 -66.098 
-9.575 3.472 -66.959 
-9.563 3.690 -66.980 
5.826 -4.170 -66.636 
5.900 -3.998 -66.787 
9.496 5.148 -67.144 
9.480 5.316 -67.175 
12.929 3.351 -73.000 
12.828 3.448 -73.196 
-5.309 -1.675 -72.929 
-5.246 -1.496 -72.924 
9.185 10.630 -68.120 
9.067 10.649 -68.289 
9.244 9.478 -64.124 
9.185 9.680 -64.179 
-0.316 1.798 -72.312 
-0.233 1.903 -72.449 
5.054 -9.995 -67.860 
5.393 -9.939 -67.957 
-0.717 8.124 -72.796 
-0.884 8.149 -72.810 
4.767 -10.152 -65.337 
4.926 -10.004 -65.344 
-7.301 -7.783 -66.566 
-7.320 -7.504 -66.549 
-6.515 11.479 -70.170 
-6.554 11.801 -70.413 
11.609 -1.436 -68.870 
11.717 -1.337 -69.039 
-5.524 3.316 -63.364 
-5.424 3.633 -63.262 
-10.451 -3.700 -66.908 
-10.397 -3.530 -66.676 
-11.516 3.317 -63.229 
-11.447 3.613 -63.119 
-8.534 -9.644 -67.020 
-8.428 -9.479 -67.104 
-8.670 -1.880 -66.761 
-8.613 -1.773 -66.593 
-1.848 11.372 -62.482 
-1.938 11.559 -62.510 
14.603 -3.690 -72.770 
14.571 -3.614 -72.814 
2.728 -8.816 -70.200 
2.859 -8.676 -70.112 
12.661 1.343 -70.036 
12.697 1.506 -70.190 
-7.653 7.891 -72.075 
-7.768 7.993 -72.330 
-1.047 -0.134 -63.038 
-0.842 0.156 -63.171 
-7.340 -5.326 -63.681 
-7.332 -5.199 -63.425 
-7.431 2.883 -63.918 
-7.357 3.086 -63.878 
12.590 9.084 -72.170 
12.476 9.109 -72.389 
12.184 -1.127 -70.117 
12.229 -1.000 -70.216 
7.110 3.750 -71.537 
6.935 3.757 -71.631 
-7.242 -1.221 -62.157 
-7.023 -0.908 -62.045 
-2.255 3.932 -61.482 
-2.217 4.214 -61.366 
-2.938 -2.954 -74.649 
-2.986 -2.947 -74.620 
-8.544 -2.797 -66.055 
-8.459 -2.659 -65.874 
-3.867 -3.532 -66.305 
-3.761 -3.276 -66.276 
-11.023 -4.631 -68.773 
-10.904 -4.445 -68.666 
-8.099 -5.525 -67.691 
-7.847 -5.291 -67.515 
-11.085 8.829 -62.490 
-10.958 9.131 -62.401 
12.829 -9.427 -68.772 
12.847 -9.255 -68.736 
-8.514 -7.054 -65.887 
-8.523 -6.737 -65.852 
3.806 -11.219 -66.589 
4.083 -11.030 -66.563 
-6.028 9.344 -63.727 
-6.000 9.600 -63.715 
3.806 11.404 -67.871 
3.800 11.624 -67.945 
13.290 -3.667 -70.333 
13.345 -3.538 -70.426 
-7.355 -2.707 -74.478 
-7.312 -2.533 -74.342 
2.242 3.627 -65.501 
2.273 3.935 -65.520 
0.390 10.800 -69.355 
0.190 10.904 -69.463 
-11.639 3.202 -69.388 
-11.547 3.194 -69.481 
13.598 -4.218 -66.064 
13.608 -4.057 -66.031 
-8.702 -11.472 -73.322 
-8.783 -11.290 -73.545 
3.367 10.147 -70.014 
3.240 10.102 -70.036 
-10.607 -2.828 -74.267 
-10.627 -2.847 -74.356 
-11.806 9.842 -65.753 
-11.775 9.884 -65.814 
-10.694 7.609 -64.761 
-10.608 7.799 -64.959 
11.400 1.001 -66.124 
11.472 1.310 -66.229 
-14.644 -10.224 -76.247 
-14.660 -10.191 -76.213 
17.577 9.467 -72.116 
17.519 9.399 -72.229 
1.510 -12.033 -64.459 
1.569 -11.863 -64.748 
-5.572 -10.216 -66.045 
-5.494 -10.046 -66.166 
10.963 11.258 -66.923 
10.907 11.151 -66.950 
-7.085 -3.308 -66.295 
-6.977 -3.095 -66.077 
11.134 10.772 -71.489 
11.067 10.763 -71.683 
-1.613 -4.521 -66.701 
-1.520 -4.210 -66.588 
-2.528 -11.517 -66.853 
-2.415 -11.373 -67.113 
-5.973 4.770 -70.164 
-5.888 4.863 -70.291 
7.207 3.331 -63.571 
7.249 3.459 -63.537 
-7.276 -5.983 -69.572 
-7.122 -5.791 -69.578 
7.986 5.297 -61.245 
8.005 5.606 -61.204 
6.958 8.003 -73.107 
6.795 7.994 -73.212 
-1.198 -6.980 -72.218 
-1.221 -6.912 -72.256 
16.559 7.414 -66.076 
16.654 7.432 -66.294 
-11.930 8.846 -75.379 
-11.950 8.868 -75.405 
-12.359 4.719 -69.025 
-12.351 4.625 -69.139 
16.653 -0.699 -68.592 
16.758 -0.444 -68.742 
-8.666 -10.874 -69.099 
-8.603 -10.633 -69.049 
-13.873 5.407 -74.016 
-13.940 5.460 -74.153 
14.048 2.620 -71.089 
14.012 2.738 -71.273 
5.565 10.230 -60.591 
5.521 10.434 -60.572 
11.120 -5.112 -67.050 
11.168 -5.017 -67.068 
9.610 4.512 -63.507 
9.657 4.782 -63.582 
12.454 10.678 -68.502 
12.342 10.706 -68.702 
-10.281 6.602 -66.673 
-10.137 6.714 -66.830 
15.923 -6.536 -71.610 
15.823 -6.441 -71.815 
2.962 -9.731 -64.593 
2.921 -9.501 -64.912 
-13.514 7.400 -71.186 
-13.573 7.436 -71.204 
16.927 9.053 -67.622 
16.946 9.095 -67.937 
-13.061 7.826 -75.848 
-13.201 7.822 -75.819 
-13.027 10.752 -65.251 
-13.024 10.819 -65.220 
-4.984 -6.718 -65.481 
-4.862 -6.484 -65.545 
-4.803 3.257 -72.270 
-4.723 3.432 -72.322 
8.486 -4.326 -73.437 
8.434 -4.243 -73.534 
-7.463 1.082 -68.721 
-7.400 1.279 -68.729 
-7.948 2.893 -64.659 
-7.916 3.082 -64.686 
1.348 1.944 -66.321 
1.533 2.234 -66.543 
14.020 9.824 -71.660 
13.899 9.889 -71.922 
11.678 0.140 -70.395 
11.710 0.280 -70.526 
-0.407 11.559 -61.386 
-0.505 11.782 -61.399 
4.712 -5.414 -60.496 
4.817 -5.158 -60.721 
2.147 -7.969 -65.889 
2.277 -7.764 -66.064 
2.331 6.957 -64.589 
2.403 7.280 -64.612 
-1.100 -12.504 -68.978 
-1.001 -12.455 -69.151 
-12.465 -7.183 -67.659 
-12.381 -7.037 -67.580 
7.336 0.739 -62.514 
7.384 0.971 -62.500 
17.142 -6.793 -72.527 
16.996 -6.770 -72.672 
8.060 6.863 -63.681 
8.144 7.022 -63.776 
0.690 2.397 -67.737 
0.800 2.737 -67.871 
-9.598 -2.388 -68.243 
-9.449 -2.269 -68.184 
11.971 -4.174 -70.479 
11.988 -4.117 -70.533 
8.045 -12.453 -65.709 
8.349 -12.349 -65.612 
-2.103 -9.591 -61.302 
-2.048 -9.341 -61.345 
9.549 10.167 -69.791 
9.461 10.067 -69.860 
14.046 -2.250 -69.094 
14.152 -2.090 -69.265 
3.930 10.173 -72.707 
3.778 10.262 -72.818 
1.252 5.879 -72.365 
1.167 5.966 -72.588 
12.371 5.349 -75.451 
12.331 5.410 -75.774 
-10.184 -2.073 -63.977 
-9.982 -1.938 -63.718 
-0.027 -2.777 -69.596 
0.067 -2.379 -69.695 
-14.845 -10.804 -71.559 
-15.029 -10.664 -71.541 
-3.016 -6.043 -73.482 
-3.041 -5.992 -73.446 
-11.149 -4.185 -64.825 
-11.216 -3.955 -64.711 
8.880 -2.892 -64.239 
8.950 -2.750 -64.291 
1.270 -3.136 -66.098 
1.487 -2.927 -66.166 
-2.769 2.699 -66.499 
-2.599 2.891 -66.528 
-15.110 -9.489 -72.065 
-15.080 -9.331 -72.040 
8.461 6.511 -72.220 
8.369 6.536 -72.333 
-11.643 1.919 -67.273 
-11.601 2.078 -67.259 
-10.408 4.359 -64.661 
-10.401 4.521 -64.758 
-14.861 -5.413 -75.588 
-14.833 -5.346 -75.740 
-13.644 -0.641 -67.952 
-13.529 -0.365 -67.770 
2.370 -7.159 -61.647 
2.451 -6.904 -61.796 
-8.903 -1.311 -66.634 
-8.630 -1.080 -66.465 
10.714 2.469 -62.875 
10.726 2.825 -62.945 
13.994 -5.679 -71.427 
14.060 -5.587 -71.469 
-7.069 -1.087 -72.750 
-6.980 -1.073 -72.742 
-0.030 -4.236 -67.127 
0.060 -3.869 -67.221 
-5.385 1.068 -67.847 
-5.261 1.284 -67.898 
[...]
POINT_DATA 1004 
SCALARS Umean double 1 
LOOKUP_TABLE default
0.08299 
0.08299 
0.06327 
0.06327 
0.11577 
0.11577 
0.06856 
0.06856 
0.12259 
0.12259 
0.03578 
0.03578 
0.10646 
0.10646 
0.12610 
0.12610 
0.12036 
0.12036 
0.07252 
0.07252 
0.09641 
0.09641 
0.15908 
0.15908 
0.13945 
0.13945 
0.11749 
0.11749 
0.10021 
0.10021 
0.11225 
0.11225 
0.09308 
0.09308 
0.15271 
0.15271 
0.13209 
0.13209 
0.05552 
0.05552 
0.11487 
0.11487 
0.07405 
0.07405 
0.06601 
0.06601 
0.12692 
0.12692 
0.08281 
0.08281 
0.15167 
0.15167 
0.07516 
0.07516 
0.09716 
0.09716 
0.07390 
0.07390 
0.08943 
0.08943 
0.19299 
0.19299 
0.08717 
0.08717 
0.04292 
0.04292 
0.11912 
0.11912 
0.07343 
0.07343 
0.06012 
0.06012 
0.06062 
0.06062 
0.11596 
0.11596 
0.06702 
0.06702 
0.15782 
0.15782 
0.05111 
0.05111 
0.12262 
0.12262 
0.14642 
0.14642 
0.14199 
0.14199 
0.08320 
0.08320 
0.11766 
0.11766 
0.23616 
0.23616 
0.04896 
0.04896 
0.12990 
0.12990 
0.17578 
0.17578 
0.06811 
0.06811 
0.06863 
0.06863 
0.09311 
0.09311 
0.13264 
0.13264 
0.11005 
0.11005 
0.06907 
0.06907 
0.10409 
0.10409 
0.07356 
0.07356 
0.13669 
0.13669 
0.15043 
0.15043 
0.11003 
0.11003 
0.07531 
0.07531 
0.12255 
0.12255 
0.05483 
0.05483 
0.10871 
0.10871 
0.12506 
0.12506 
0.12947 
0.12947 
0.13322 
0.13322 
0.15408 
0.15408 
0.04440 
0.04440 
0.11667 
0.11667 
0.06687 
0.06687 
0.07258 
0.07258 
0.12782 
0.12782 
0.18612 
0.18612 
0.04319 
0.04319 
0.16466 
0.16466 
0.08972 
0.08972 
0.03524 
0.03524 
0.12401 
0.12401 
0.11338 
0.11338 
0.19030 
0.19030 
0.10358 
0.10358 
0.15599 
0.15599 
0.10967 
0.10967 
0.12027 
0.12027 
0.08579 
0.08579 
0.12044 
0.12044 
0.09491 
0.09491 
0.10350 
0.10350 
0.10875 
0.10875 
0.09576 
0.09576 
0.17851 
0.17851 
0.08472 
0.08472 
0.10867 
0.10867 
0.14008 
0.14008 
0.20264 
0.20264 
0.11183 
0.11183 
0.17385 
0.17385 
0.14632 
0.14632 
0.16161 
0.16161 
0.10667 
0.10667 
0.10359 
0.10359 
0.10471 
0.10471 
0.04673 
0.04673 
0.10548 
0.10548 
0.11356 
0.11356 
0.14887 
0.14887 
0.18961 
0.18961 
0.14294 
0.14294 
0.10987 
0.10987 
0.12408 
0.12408 
0.08360 
0.08360 
0.09939 
0.09939 
0.19904 
0.19904 
0.15364 
0.15364 
0.02826 
0.02826 
0.12148 
0.12148 
0.13930 
0.13930 
0.12268 
0.12268 
0.19316 
0.19316 
0.16975 
0.16975 
0.08832 
0.08832 
0.15953 
0.15953 
0.16817 
0.16817 
0.12890 
0.12890 
0.11609 
0.11609 
0.08414 
0.08414 
0.11250 
0.11250 
0.15507 
0.15507 
0.12498 
0.12498 
0.06553 
0.06553 
0.08233 
0.08233 
0.14951 
0.14951 
0.06826 
0.06826 
0.04659 
0.04659 
0.04014 
0.04014 
0.14379 
0.14379 
0.16710 
0.16710 
0.02500 
0.02500 
0.07204 
0.07204 
0.17022 
0.17022 
0.11138 
0.11138 
0.06187 
0.06187 
0.16168 
0.16168 
0.10272 
0.10272 
0.17186 
0.17186 
0.15899 
0.15899 
0.08945 
0.08945 
0.06947 
0.06947 
0.12310 
0.12310 
0.15614 
0.15614 
0.09705 
0.09705 
0.04061 
0.04061 
0.11924 
0.11924 
0.01975 
0.01975 
0.07399 
0.07399 
0.15696 
0.15696 
0.12703 
0.12703 
0.08073 
0.08073 
0.11077 
0.11077 
0.10478 
0.10478 
0.05397 
0.05397 
0.14207 
0.14207 
0.11546 
0.11546 
0.12034 
0.12034 
0.12354 
0.12354 
0.19770 
0.19770 
0.03571 
0.03571 
0.15918 
0.15918 
0.07151 
0.07151 
0.03694 
0.03694 
0.13577 
0.13577 
0.09966 
0.09966 
0.06892 
0.06892 
0.10349 
0.10349 
0.09679 
0.09679 
0.20470 
0.20470 
0.14791 
0.14791 
0.09719 
0.09719 
0.12197 
0.12197 
0.17832 
0.17832 
0.14962 
0.14962 
0.16586 
0.16586 
0.10263 
0.10263 
0.09302 
0.09302 
0.11866 
0.11866 
0.10353 
0.10353 
0.10169 
0.10169 
0.19082 
0.19082 
0.09980 
0.09980 
0.04017 
0.04017 
0.16781 
0.16781 
0.12978 
0.12978 
0.07501 
0.07501 
0.12853 
0.12853 
0.10410 
0.10410 
0.12701 
0.12701 
0.16557 
0.16557 
0.17756 
0.17756 
0.21038 
0.21038 
0.11595 
0.11595 
0.03362 
0.03362 
0.13265 
0.13265 
0.08332 
0.08332 
0.15443 
0.15443 
0.12904 
0.12904 
0.08138 
0.08138 
0.07392 
0.07392 
0.08252 
0.08252 
0.09447 
0.09447 
0.08423 
0.08423 
0.17502 
0.17502 
0.15312 
0.15312 
0.19777 
0.19777 
0.18151 
0.18151 
0.06038 
0.06038 
0.04522 
0.04522 
0.19470 
0.19470 
0.12712 
0.12712 
0.19181 
0.19181 
0.11826 
0.11826 
0.13901 
0.13901 
0.12623 
0.12623 
0.05520 
0.05520 
0.03680 
0.03680 
0.13267 
0.13267 
0.05743 
0.05743 
0.06938 
0.06938 
0.10689 
0.10689 
0.07779 
0.07779 
0.07702 
0.07702 
0.12471 
0.12471 
0.20059 
0.20059 
0.12812 
0.12812 
0.08467 
0.08467 
0.16922 
0.16922 
0.07980 
0.07980 
0.12374 
0.12374 
0.18263 
0.18263 
0.07146 
0.07146 
0.03851 
0.03851 
0.13270 
0.13270 
0.05770 
0.05770 
0.12956 
0.12956 
0.11088 
0.11088 
0.04433 
0.04433 
0.13376 
0.13376 
0.12717 
0.12717 
0.11601 
0.11601 
0.08516 
0.08516 
0.17392 
0.17392 
0.09558 
0.09558 
0.17085 
0.17085 
0.12989 
0.12989 
0.17776 
0.17776 
0.11080 
0.11080 
0.10791 
0.10791 
0.23073 
0.23073 
0.13685 
0.13685 
0.16103 
0.16103 
0.14634 
0.14634 
0.02675 
0.02675 
0.16914 
0.16914 
0.12826 
0.12826 
0.10623 
0.10623 
0.12648 
0.12648 
0.10246 
0.10246 
0.07100 
0.07100 
0.07105 
0.07105 
0.10866 
0.10866 
0.14533 
0.14533 
0.17000 
0.17000 
0.12641 
0.12641 
0.12288 
0.12288 
0.17353 
0.17353 
0.12645 
0.12645 
0.09739 
0.09739 
0.22617 
0.22617 
0.09374 
0.09374 
0.09012 
0.09012 
0.05485 
0.05485 
0.10168 
0.10168 
0.09389 
0.09389 
0.18515 
0.18515 
0.08310 
0.08310 
0.16080 
0.16080 
0.14575 
0.14575 
0.15337 
0.15337 
0.14370 
0.14370 
0.13539 
0.13539 
0.12227 
0.12227 
0.08637 
0.08637 
0.16003 
0.16003 
0.04320 
0.04320 
0.16172 
0.16172 
0.15924 
0.15924 
0.05286 
0.05286 
0.12313 
0.12313 
0.09589 
0.09589 
0.13493 
0.13493 
0.12672 
0.12672 
0.13763 
0.13763 
0.11795 
0.11795 
0.02404 
0.02404 
0.09260 
0.09260 
0.12464 
0.12464 
0.17361 
0.17361 
0.11606 
0.11606 
0.12732 
0.12732 
0.03657 
0.03657 
0.11164 
0.11164 
0.10844 
0.10844 
0.18717 
0.18717 
0.04806 
0.04806 
0.09648 
0.09648 
0.07218 
0.07218 
0.09489 
0.09489 
0.04182 
0.04182 
0.12912 
0.12912 
0.17887 
0.17887 
0.11134 
0.11134 
0.10179 
0.10179 
0.08713 
0.08713 
0.03974 
0.03974 
0.09775 
0.09775 
0.08240 
0.08240 
0.19820 
0.19820 
0.07940 
0.07940 
0.07247 
0.07247 
0.09391 
0.09391 
0.06317 
0.06317 
0.14968 
0.14968 
0.07481 
0.07481 
0.08650 
0.08650 
0.10554 
0.10554 
0.02069 
0.02069 
0.12492 
0.12492 
0.11137 
0.11137 
0.04400 
0.04400 
0.18393 
0.18393 
0.09021 
0.09021 
0.11042 
0.11042 
0.13301 
0.13301 
0.07451 
0.07451 
0.10731 
0.10731 
0.14057 
0.14057 
0.18013 
0.18013 
0.12290 
0.12290 
0.16795 
0.16795 
0.09397 
0.09397 
0.13458 
0.13458 
0.11518 
0.11518 
0.15314 
0.15314 
0.20743 
0.20743 
0.14265 
0.14265 
0.11845 
0.11845 
0.23509 
0.23509 
0.19069 
0.19069 
0.01544 
0.01544 
0.15680 
0.15680 
0.12117 
0.12117 
0.13145 
0.13145 
0.14145 
0.14145 
0.07858 
0.07858 
0.04365 
0.04365 
0.03877 
0.03877 
0.14832 
0.14832 
0.14406 
0.14406 
0.15448 
0.15448 
0.07659 
0.07659 
0.03245 
0.03245 
0.18042 
0.18042 
0.14311 
0.14311 
0.18798 
0.18798 
0.08938 
0.08938 
0.11817 
0.11817 
0.16438 
0.16438 
0.17228 
0.17228 
0.05033 
0.05033 
0.08774 
0.08774 
0.11722 
0.11722 
0.11588 
0.11588 
0.13070 
0.13070 
0.05360 
0.05360 
0.12667 
0.12667 
0.18568 
0.18568 
0.19220 
0.19220 
0.09037 
0.09037 
0.14077 
0.14077 
0.11440 
0.11440 
0.11510 
0.11510 
0.10633 
0.10633 
0.13066 
0.13066 
0.08058 
0.08058 
0.11739 
0.11739 
0.07675 
0.07675 
0.18821 
0.18821 
0.06637 
0.06637 
0.19157 
0.19157 
0.11637 
0.11637 
0.11872 
0.11872 
0.11127 
0.11127 
0.08128 
0.08128 
0.08597 
0.08597 
0.11844 
0.11844 
0.19308 
0.19308 
0.11371 
0.11371 
0.15043 
0.15043 
0.13772 
0.13772 
0.09294 
0.09294 
0.13963 
0.13963 
0.13000 
0.13000 
0.25711 
0.25711 
0.08837 
0.08837 
0.11233 
0.11233 
0.16260 
0.16260 
0.12084 
0.12084 
0.19337 
0.19337 
0.07726 
0.07726 
0.11115 
0.11115 
0.07751 
0.07751 
0.03565 
0.03565 
0.11980 
0.11980 
0.13049 
0.13049 
0.19263 
0.19263 
0.09676 
0.09676 
0.11094 
0.11094 
0.23101 
0.23101 
0.13638 
0.13638 
0.14520 
0.14520 
0.11084 
0.11084 
0.12249 
0.12249 
0.10147 
0.10147 
0.07182 
0.07182 
0.13416 
0.13416 
0.07336 
0.07336 
0.07635 
0.07635 
0.09037 
0.09037 
0.11412 
0.11412 
0.07062 
0.07062 
0.12277 
0.12277 
0.07399 
0.07399 
0.13516 
0.13516 
0.05869 
0.05869 
0.05971 
0.05971 
0.07893 
0.07893 
0.05201 
0.05201 
0.09915 
0.09915 
0.08975 
0.08975 
0.15923 
0.15923 
0.17542 
0.17542 
0.08119 
0.08119 
0.06477 
0.06477 
0.07724 
0.07724 
0.16643 
0.16643 
0.13471 
0.13471 
0.15323 
0.15323 
0.11320 
0.11320 
0.18026 
0.18026 
0.18342 
0.18342 
0.11887 
0.11887 
0.20337 
0.20337 
0.09468 
0.09468 
0.06285 
0.06285 
0.08856 
0.08856 
0.18868 
0.18868 
0.11869 
0.11869 
0.09906 
0.09906 
0.07508 
0.07508 
0.16151 
0.16151 
0.17867 
0.17867 
0.15077 
0.15077 
0.12919 
0.12919 
0.11218 
0.11218 
0.09470 
0.09470 
0.20491 
0.20491 
0.13184 
0.13184 
0.20729 
0.20729 
0.11840 
0.11840 
0.04026 
0.04026 
0.14485 
0.14485 
0.09451 
0.09451 
0.12314 
0.12314 
0.11138 
0.11138 
0.10165 
0.10165 
0.09171 
0.09171 
0.11168 
0.11168 
0.05275 
0.05275 
0.08273 
0.08273 
0.13505 
0.13505 
0.15737 
0.15737 
0.12700 
0.12700 
0.11669 
0.11669 
0.10224 
0.10224 
0.09760 
0.09760 
0.05795 
0.05795 
0.16325 
0.16325 
0.09113 
0.09113 
0.14303 
0.14303 
0.09863 
0.09863 
0.08771 
0.08771 
SCALARS Umean_X double 1 
LOOKUP_TABLE default
-0.01950 
-0.01950 
-0.03250 
-0.03250 
-0.00100 
-0.00100 
-0.01050 
-0.01050 
0.04750 
0.04750 
0.00200 
0.00200 
0.01250 
0.01250 
0.02400 
0.02400 
-0.00200 
-0.00200 
0.01950 
0.01950 
-0.08400 
-0.08400 
0.00700 
0.00700 
0.05900 
0.05900 
-0.00300 
-0.00300 
-0.01400 
-0.01400 
0.02700 
0.02700 
0.07350 
0.07350 
-0.00800 
-0.00800 
0.07650 
0.07650 
-0.01350 
-0.01350 
0.05400 
0.05400 
-0.05600 
-0.05600 
0.04400 
0.04400 
-0.09500 
-0.09500 
-0.00100 
-0.00100 
-0.03200 
-0.03200 
0.03150 
0.03150 
-0.00250 
-0.00250 
0.03150 
0.03150 
0.03550 
0.03550 
0.10250 
0.10250 
-0.01250 
-0.01250 
-0.03400 
-0.03400 
-0.06600 
-0.06600 
-0.01200 
-0.01200 
0.02800 
0.02800 
0.03150 
0.03150 
0.05750 
0.05750 
0.01050 
0.01050 
0.02850 
0.02850 
0.01000 
0.01000 
0.01500 
0.01500 
0.07200 
0.07200 
0.01500 
0.01500 
0.02900 
0.02900 
0.03200 
0.03200 
0.09500 
0.09500 
0.02900 
0.02900 
-0.00700 
-0.00700 
0.02450 
0.02450 
0.00900 
0.00900 
0.01400 
0.01400 
-0.06700 
-0.06700 
0.00550 
0.00550 
-0.03800 
-0.03800 
-0.05700 
-0.05700 
0.04350 
0.04350 
-0.04050 
-0.04050 
-0.01600 
-0.01600 
0.07100 
0.07100 
-0.04750 
-0.04750 
-0.04250 
-0.04250 
-0.03650 
-0.03650 
-0.04750 
-0.04750 
-0.04600 
-0.04600 
-0.07900 
-0.07900 
0.05900 
0.05900 
-0.05650 
-0.05650 
0.04100 
0.04100 
0.03900 
0.03900 
0.02550 
0.02550 
0.05900 
0.05900 
0.02100 
0.02100 
0.07500 
0.07500 
0.09650 
0.09650 
-0.04300 
-0.04300 
0.11450 
0.11450 
0.06350 
0.06350 
0.01200 
0.01200 
0.00950 
0.00950 
0.01450 
0.01450 
0.13000 
0.13000 
0.01000 
0.01000 
0.05150 
0.05150 
0.00600 
0.00600 
0.03700 
0.03700 
-0.00800 
-0.00800 
-0.05050 
-0.05050 
0.03150 
0.03150 
-0.05900 
-0.05900 
-0.02950 
-0.02950 
0.04150 
0.04150 
0.16950 
0.16950 
-0.08350 
-0.08350 
0.07950 
0.07950 
-0.00950 
-0.00950 
-0.01950 
-0.01950 
0.05400 
0.05400 
0.05000 
0.05000 
0.02700 
0.02700 
0.03450 
0.03450 
0.05300 
0.05300 
0.02850 
0.02850 
-0.04500 
-0.04500 
-0.01600 
-0.01600 
0.06550 
0.06550 
0.01800 
0.01800 
-0.05750 
-0.05750 
0.10250 
0.10250 
0.00400 
0.00400 
0.03700 
0.03700 
-0.05700 
-0.05700 
0.02250 
0.02250 
-0.08750 
-0.08750 
0.10950 
0.10950 
0.01900 
0.01900 
-0.02400 
-0.02400 
0.04250 
0.04250 
0.05300 
0.05300 
0.05950 
0.05950 
0.12600 
0.12600 
0.06350 
0.06350 
0.00900 
0.00900 
-0.00450 
-0.00450 
0.13850 
0.13850 
0.01400 
0.01400 
-0.00300 
-0.00300 
0.02750 
0.02750 
0.02150 
0.02150 
0.01550 
0.01550 
-0.10000 
-0.10000 
0.04600 
0.04600 
0.00500 
0.00500 
-0.04050 
-0.04050 
-0.06350 
-0.06350 
-0.01000 
-0.01000 
0.01550 
0.01550 
0.04300 
0.04300 
0.03600 
0.03600 
-0.00800 
-0.00800 
-0.02900 
-0.02900 
0.02950 
0.02950 
0.03900 
0.03900 
-0.02800 
-0.02800 
0.05400 
0.05400 
-0.03350 
-0.03350 
0.04650 
0.04650 
0.05650 
0.05650 
0.04250 
0.04250 
0.02100 
0.02100 
0.07700 
0.07700 
0.00950 
0.00950 
-0.08150 
-0.08150 
-0.01150 
-0.01150 
0.04750 
0.04750 
-0.01000 
-0.01000 
0.00400 
0.00400 
0.05250 
0.05250 
0.03150 
0.03150 
-0.03350 
-0.03350 
-0.01800 
-0.01800 
-0.02200 
-0.02200 
0.02400 
0.02400 
0.02350 
0.02350 
-0.05600 
-0.05600 
0.07200 
0.07200 
-0.05000 
-0.05000 
-0.02050 
-0.02050 
-0.02950 
-0.02950 
0.00950 
0.00950 
-0.07000 
-0.07000 
0.00150 
0.00150 
0.06100 
0.06100 
0.04000 
0.04000 
-0.02600 
-0.02600 
0.03150 
0.03150 
0.01600 
0.01600 
0.09250 
0.09250 
-0.06050 
-0.06050 
0.01600 
0.01600 
-0.04900 
-0.04900 
0.05250 
0.05250 
0.06500 
0.06500 
0.03600 
0.03600 
0.04950 
0.04950 
0.04200 
0.04200 
0.02400 
0.02400 
-0.07300 
-0.07300 
0.04200 
0.04200 
0.05500 
0.05500 
0.07450 
0.07450 
0.00850 
0.00850 
0.15200 
0.15200 
0.02750 
0.02750 
-0.04400 
-0.04400 
0.05300 
0.05300 
-0.07600 
-0.07600 
-0.04250 
-0.04250 
-0.02000 
-0.02000 
0.10100 
0.10100 
0.04700 
0.04700 
-0.09200 
-0.09200 
-0.01250 
-0.01250 
-0.03350 
-0.03350 
0.03500 
0.03500 
0.10850 
0.10850 
0.08500 
0.08500 
0.01500 
0.01500 
-0.04600 
-0.04600 
0.02100 
0.02100 
0.00350 
0.00350 
0.01400 
0.01400 
0.05750 
0.05750 
0.04050 
0.04050 
0.13650 
0.13650 
0.00600 
0.00600 
0.03300 
0.03300 
0.04450 
0.04450 
0.04500 
0.04500 
0.06200 
0.06200 
0.11000 
0.11000 
-0.01300 
-0.01300 
0.03750 
0.03750 
0.05100 
0.05100 
0.03700 
0.03700 
0.01200 
0.01200 
-0.07150 
-0.07150 
-0.03450 
-0.03450 
0.02950 
0.02950 
0.05700 
0.05700 
0.01550 
0.01550 
-0.01300 
-0.01300 
0.00300 
0.00300 
0.02500 
0.02500 
-0.06800 
-0.06800 
-0.01600 
-0.01600 
-0.05050 
-0.05050 
0.03100 
0.03100 
0.07950 
0.07950 
0.08350 
0.08350 
0.00450 
0.00450 
0.01100 
0.01100 
0.05000 
0.05000 
0.01400 
0.01400 
-0.05150 
-0.05150 
0.06900 
0.06900 
-0.00450 
-0.00450 
-0.07850 
-0.07850 
0.00350 
0.00350 
-0.03400 
-0.03400 
0.06450 
0.06450 
-0.04150 
-0.04150 
-0.06800 
-0.06800 
-0.06750 
-0.06750 
-0.01500 
-0.01500 
-0.08100 
-0.08100 
0.08350 
0.08350 
0.09450 
0.09450 
0.10500 
0.10500 
0.01750 
0.01750 
-0.07050 
-0.07050 
-0.06500 
-0.06500 
-0.01950 
-0.01950 
-0.06150 
-0.06150 
0.00650 
0.00650 
0.00350 
0.00350 
0.04550 
0.04550 
0.05750 
0.05750 
-0.02500 
-0.02500 
-0.05650 
-0.05650 
0.02150 
0.02150 
0.07900 
0.07900 
-0.03400 
-0.03400 
-0.01150 
-0.01150 
0.01400 
0.01400 
0.07650 
0.07650 
0.06250 
0.06250 
0.00150 
0.00150 
0.07050 
0.07050 
-0.00950 
-0.00950 
-0.08400 
-0.08400 
0.00950 
0.00950 
-0.07200 
-0.07200 
0.04650 
0.04650 
0.12550 
0.12550 
-0.06350 
-0.06350 
-0.07950 
-0.07950 
-0.01800 
-0.01800 
0.02300 
0.02300 
-0.01550 
-0.01550 
0.03450 
0.03450 
0.03950 
0.03950 
0.00800 
0.00800 
-0.07100 
-0.07100 
-0.00550 
-0.00550 
0.08350 
0.08350 
0.03600 
0.03600 
-0.00250 
-0.00250 
-0.02600 
-0.02600 
0.02950 
0.02950 
0.01000 
0.01000 
0.06500 
0.06500 
-0.06300 
-0.06300 
0.05700 
0.05700 
-0.00800 
-0.00800 
-0.00150 
-0.00150 
-0.02600 
-0.02600 
0.16500 
0.16500 
-0.06800 
-0.06800 
-0.06700 
-0.06700 
0.02300 
0.02300 
-0.10450 
-0.10450 
0.02950 
0.02950 
-0.00050 
-0.00050 
0.02850 
0.02850 
0.05550 
0.05550 
0.03550 
0.03550 
0.01500 
0.01500 
-0.01150 
-0.01150 
-0.02650 
-0.02650 
0.00550 
0.00550 
0.04100 
0.04100 
0.03250 
0.03250 
0.07750 
0.07750 
0.03100 
0.03100 
0.04300 
0.04300 
-0.00150 
-0.00150 
0.08750 
0.08750 
-0.07600 
-0.07600 
0.02950 
0.02950 
0.01700 
0.01700 
-0.01550 
-0.01550 
-0.05700 
-0.05700 
-0.00400 
-0.00400 
0.04000 
0.04000 
0.03500 
0.03500 
0.01300 
0.01300 
-0.08850 
-0.08850 
-0.06050 
-0.06050 
-0.02200 
-0.02200 
0.01450 
0.01450 
-0.00000 
-0.00000 
-0.04500 
-0.04500 
0.02950 
0.02950 
0.05800 
0.05800 
0.05750 
0.05750 
0.01450 
0.01450 
0.02050 
0.02050 
0.07450 
0.07450 
0.01850 
0.01850 
-0.04150 
-0.04150 
-0.01500 
-0.01500 
0.07050 
0.07050 
0.09100 
0.09100 
0.07800 
0.07800 
0.05200 
0.05200 
0.00150 
0.00150 
0.10750 
0.10750 
0.04500 
0.04500 
-0.01400 
-0.01400 
0.06300 
0.06300 
-0.00950 
-0.00950 
-0.02850 
-0.02850 
0.00050 
0.00050 
0.06800 
0.06800 
-0.01550 
-0.01550 
-0.01900 
-0.01900 
-0.06600 
-0.06600 
-0.03750 
-0.03750 
-0.02350 
-0.02350 
-0.02150 
-0.02150 
0.02600 
0.02600 
-0.00150 
-0.00150 
0.09200 
0.09200 
0.03750 
0.03750 
0.06450 
0.06450 
0.03500 
0.03500 
0.05300 
0.05300 
0.01150 
0.01150 
0.02050 
0.02050 
-0.05350 
-0.05350 
0.05200 
0.05200 
0.08350 
0.08350 
0.05150 
0.05150 
0.01150 
0.01150 
-0.02300 
-0.02300 
0.11000 
0.11000 
-0.02400 
-0.02400 
-0.01250 
-0.01250 
-0.02000 
-0.02000 
-0.00900 
-0.00900 
0.03250 
0.03250 
0.03100 
0.03100 
-0.00250 
-0.00250 
0.03700 
0.03700 
-0.02100 
-0.02100 
0.03050 
0.03050 
0.11500 
0.11500 
0.05050 
0.05050 
0.02550 
0.02550 
0.11100 
0.11100 
-0.05900 
-0.05900 
0.01600 
0.01600 
0.04050 
0.04050 
0.03750 
0.03750 
-0.09550 
-0.09550 
0.05900 
0.05900 
-0.02100 
-0.02100 
-0.08150 
-0.08150 
0.00700 
0.00700 
0.01450 
0.01450 
0.07950 
0.07950 
-0.05000 
-0.05000 
0.07650 
0.07650 
0.01650 
0.01650 
-0.02800 
-0.02800 
-0.01100 
-0.01100 
-0.01400 
-0.01400 
0.12500 
0.12500 
-0.00750 
-0.00750 
0.03700 
0.03700 
-0.02500 
-0.02500 
-0.00450 
-0.00450 
0.10600 
0.10600 
0.08250 
0.08250 
-0.07750 
-0.07750 
-0.03750 
-0.03750 
0.01550 
0.01550 
0.04000 
0.04000 
0.06400 
0.06400 
-0.06150 
-0.06150 
-0.02350 
-0.02350 
0.02700 
0.02700 
-0.02150 
-0.02150 
0.01750 
0.01750 
-0.07150 
-0.07150 
-0.01050 
-0.01050 
0.01750 
0.01750 
0.01650 
0.01650 
-0.04850 
-0.04850 
0.03250 
0.03250 
0.06650 
0.06650 
-0.03350 
-0.03350 
0.09100 
0.09100 
-0.00650 
-0.00650 
-0.03350 
-0.03350 
-0.02950 
-0.02950 
-0.02150 
-0.02150 
-0.07500 
-0.07500 
0.08550 
0.08550 
0.02650 
0.02650 
-0.00150 
-0.00150 
-0.05700 
-0.05700 
-0.00650 
-0.00650 
-0.02300 
-0.02300 
0.02500 
0.02500 
0.02750 
0.02750 
0.01850 
0.01850 
0.00800 
0.00800 
0.03000 
0.03000 
0.04500 
0.04500 
0.04250 
0.04250 
0.05450 
0.05450 
0.03350 
0.03350 
-0.06200 
-0.06200 
-0.03900 
-0.03900 
0.08600 
0.08600 
0.01750 
0.01750 
-0.05900 
-0.05900 
-0.00450 
-0.00450 
0.02350 
0.02350 
0.02200 
0.02200 
0.04300 
0.04300 
-0.09100 
-0.09100 
-0.00750 
-0.00750 
-0.09050 
-0.09050 
0.09950 
0.09950 
-0.06250 
-0.06250 
0.07550 
0.07550 
0.03950 
0.03950 
0.01150 
0.01150 
-0.03500 
-0.03500 
-0.04600 
-0.04600 
-0.04800 
-0.04800 
-0.08950 
-0.08950 
0.05150 
0.05150 
-0.04900 
-0.04900 
-0.10050 
-0.10050 
-0.02800 
-0.02800 
-0.05050 
-0.05050 
0.03150 
0.03150 
-0.04000 
-0.04000 
-0.02600 
-0.02600 
-0.00100 
-0.00100 
0.00500 
0.00500 
-0.04000 
-0.04000 
-0.04250 
-0.04250 
0.09700 
0.09700 
0.02800 
0.02800 
-0.05200 
-0.05200 
-0.04250 
-0.04250 
-0.03200 
-0.03200 
SCALARS Umean_Y double 1 
LOOKUP_TABLE default
0.06250 
0.06250 
0.03500 
0.03500 
0.06000 
0.06000 
0.06050 
0.06050 
0.09900 
0.09900 
-0.00400 
-0.00400 
0.08600 
0.08600 
0.12300 
0.12300 
0.11100 
0.11100 
0.04550 
0.04550 
0.03700 
0.03700 
0.13200 
0.13200 
0.06800 
0.06800 
0.08600 
0.08600 
0.04950 
0.04950 
0.10650 
0.10650 
0.05350 
0.05350 
0.15250 
0.15250 
0.10200 
0.10200 
0.02800 
0.02800 
0.09250 
0.09250 
0.03350 
0.03350 
0.04350 
0.04350 
0.06050 
0.06050 
0.07250 
0.07250 
0.06750 
0.06750 
0.04850 
0.04850 
0.05650 
0.05650 
0.02500 
0.02500 
0.07600 
0.07600 
0.15250 
0.15250 
0.04900 
0.04900 
0.02400 
0.02400 
0.05650 
0.05650 
0.00800 
0.00800 
0.04250 
0.04250 
0.03950 
0.03950 
0.08050 
0.08050 
0.06600 
0.06600 
0.15200 
0.15200 
0.04750 
0.04750 
0.05100 
0.05100 
0.11250 
0.11250 
0.13400 
0.13400 
0.07550 
0.07550 
0.06600 
0.06600 
0.18900 
0.18900 
0.03400 
0.03400 
0.12050 
0.12050 
0.17350 
0.17350 
0.02150 
0.02150 
-0.00500 
-0.00500 
0.06450 
0.06450 
0.10450 
0.10450 
0.07100 
0.07100 
0.00050 
0.00050 
0.09450 
0.09450 
0.06050 
0.06050 
0.12250 
0.12250 
0.09600 
0.09600 
0.06500 
0.06500 
0.03250 
0.03250 
0.10900 
0.10900 
0.02550 
0.02550 
0.07850 
0.07850 
0.05250 
0.05250 
0.10100 
0.10100 
0.08850 
0.08850 
0.14850 
0.14850 
0.01450 
0.01450 
0.10300 
0.10300 
0.03000 
0.03000 
0.05750 
0.05750 
0.10350 
0.10350 
0.13900 
0.13900 