# vtk DataFile Version 2.1 
Trajects from timestep 182 with color option 
ASCII 
 
DATASET POLYDATA POINTS 920 float 
3.756 4.471 -70.531 
3.773 4.427 -70.785 
1.103 -4.155 -70.304 
1.050 -4.056 -70.598 
5.982 4.590 -75.439 
6.245 4.777 -75.692 
-10.741 -2.064 -72.413 
-10.697 -1.705 -72.265 
1.781 6.949 -70.183 
1.737 6.930 -70.365 
-0.943 4.252 -71.920 
-0.794 4.285 -72.164 
4.028 3.640 -70.746 
4.042 3.572 -70.824 
-6.655 4.239 -73.356 
-6.517 4.363 -73.546 
3.384 -11.141 -70.913 
3.420 -11.019 -71.023 
-6.972 9.057 -75.051 
-6.741 9.126 -75.267 
0.110 -1.746 -70.317 
0.180 -1.465 -70.470 
-7.130 8.251 -71.553 
-7.162 8.336 -71.876 
6.938 -3.126 -69.948 
6.997 -2.892 -70.386 
7.392 3.866 -71.934 
7.369 3.896 -72.102 
-5.371 10.594 -68.323 
-5.613 10.658 -68.458 
4.037 6.180 -70.439 
4.065 6.107 -70.503 
3.575 6.950 -70.777 
3.514 6.864 -70.827 
-1.568 -5.791 -66.916 
-1.731 -5.541 -67.221 
3.302 -1.342 -71.436 
3.550 -1.313 -71.785 
-6.613 0.507 -66.283 
-6.425 0.836 -66.344 
8.844 -8.840 -63.524 
8.522 -8.846 -63.507 
1.472 -8.184 -71.539 
1.686 -8.038 -71.616 
4.838 11.256 -72.412 
4.724 11.019 -72.274 
4.725 -6.200 -68.842 
4.716 -6.327 -69.176 
0.313 -8.126 -71.704 
0.492 -7.946 -71.719 
5.073 9.780 -67.513 
4.941 9.703 -67.412 
-5.399 5.324 -73.201 
-5.147 5.474 -73.272 
1.685 2.872 -68.389 
1.853 2.862 -68.530 
0.937 -7.755 -71.764 
1.166 -7.589 -71.814 
-8.658 -4.827 -70.043 
-8.556 -4.525 -70.163 
0.236 5.196 -69.060 
0.275 5.197 -69.173 
-2.354 6.339 -71.597 
-2.295 6.400 -71.760 
-1.535 -7.792 -68.765 
-1.324 -7.671 -68.873 
5.831 -0.092 -67.406 
5.835 -0.029 -67.560 
-4.875 7.525 -67.309 
-4.779 7.612 -67.400 
8.192 -0.628 -72.057 
8.203 -0.637 -72.263 
1.229 -1.845 -67.968 
1.320 -1.635 -68.334 
-6.645 -6.135 -70.759 
-6.435 -5.930 -70.981 
-9.291 5.371 -69.153 
-9.220 5.425 -69.167 
4.926 3.167 -67.240 
4.923 3.314 -67.346 
-3.472 5.472 -64.377 
-3.431 5.531 -64.421 
-3.656 -7.232 -70.304 
-3.395 -7.144 -70.346 
-6.699 6.500 -70.437 
-6.579 6.637 -70.569 
-4.942 -0.844 -67.152 
-4.665 -0.660 -67.383 
7.421 0.648 -70.069 
7.429 0.545 -70.203 
3.069 6.708 -69.905 
3.029 6.630 -70.054 
-12.412 -6.042 -70.719 
-12.310 -5.864 -70.831 
0.273 -5.006 -72.266 
0.418 -4.898 -72.523 
0.054 -4.344 -69.177 
0.031 -4.210 -69.388 
15.658 6.778 -71.924 
15.932 7.016 -72.458 
2.907 -4.237 -71.909 
2.942 -4.164 -72.273 
0.079 8.224 -66.165 
0.092 8.338 -66.124 
9.601 -7.143 -72.859 
9.719 -7.068 -72.997 
-7.235 4.656 -73.373 
-7.031 4.748 -73.489 
1.072 -7.687 -67.451 
1.005 -7.569 -67.859 
-11.431 8.881 -67.152 
-11.371 9.204 -66.949 
-12.196 7.632 -73.961 
-12.110 8.015 -74.024 
3.072 4.695 -71.835 
3.161 4.545 -72.078 
-10.707 -4.712 -73.613 
-10.482 -4.598 -73.514 
-6.053 -12.636 -66.353 
-5.722 -12.519 -66.133 
0.265 9.622 -70.781 
0.156 9.727 -70.798 
6.388 10.921 -70.035 
6.335 10.742 -70.084 
3.452 -6.959 -66.586 
3.617 -7.063 -66.933 
7.848 -4.489 -67.343 
7.931 -4.564 -67.565 
-1.367 -8.952 -67.685 
-1.227 -8.809 -67.528 
-1.654 -2.574 -71.347 
-1.497 -2.430 -71.717 
-0.859 8.118 -64.767 
-0.758 8.313 -64.660 
-9.939 -1.658 -67.622 
-9.845 -1.397 -67.802 
-5.379 -4.906 -68.373 
-5.262 -4.832 -68.559 
0.900 -10.841 -69.178 
1.069 -10.953 -69.322 
12.065 2.181 -63.206 
12.083 2.187 -63.595 
8.894 -12.512 -68.586 
8.865 -12.428 -68.606 
-1.989 3.730 -64.336 
-1.863 3.747 -64.424 
10.409 9.737 -68.883 
10.555 9.623 -69.020 
9.702 5.927 -71.364 
9.827 5.660 -71.613 
11.717 11.109 -69.476 
11.461 11.218 -69.800 
1.635 -10.953 -67.852 
1.988 -10.910 -67.923 
1.965 -0.594 -66.177 
1.812 -0.603 -66.476 
2.945 7.465 -64.807 
3.097 7.718 -64.859 
12.213 8.474 -71.966 
12.369 8.487 -72.226 
-2.797 -3.969 -69.114 
-2.653 -3.948 -69.400 
10.969 4.243 -69.512 
10.978 4.311 -69.721 
-6.948 -2.737 -64.450 
-6.921 -2.603 -64.755 
6.273 -5.436 -66.633 
6.499 -5.481 -66.830 
4.216 -5.178 -68.113 
4.295 -5.222 -68.472 
-2.629 -1.206 -66.996 
-2.665 -0.934 -67.505 
-5.761 -6.883 -62.351 
-5.983 -6.797 -62.479 
-5.699 -1.995 -68.626 
-5.524 -1.722 -68.940 
0.723 8.016 -65.926 
0.726 8.172 -65.913 
-14.756 -3.731 -68.934 
-14.547 -3.535 -68.973 
3.257 -4.761 -68.632 
3.411 -4.800 -69.044 
-1.785 -6.498 -67.927 
-1.824 -6.337 -67.907 
-6.463 10.295 -63.661 
-6.380 10.604 -63.675 
4.277 1.237 -71.140 
4.423 1.074 -71.454 
13.222 -3.941 -69.554 
13.324 -4.043 -69.864 
-0.351 -12.630 -69.190 
-0.132 -12.583 -69.098 
11.972 1.201 -65.981 
11.958 1.176 -66.202 
-3.076 -9.852 -63.675 
-3.287 -9.937 -63.628 
2.711 -7.427 -71.358 
3.075 -7.467 -71.772 
-10.978 -3.172 -66.048 
-10.909 -3.058 -66.283 
-5.352 6.787 -72.809 
-5.046 7.053 -72.825 
13.046 2.453 -74.667 
13.099 2.353 -75.126 
1.346 2.178 -69.741 
1.610 2.116 -70.011 
5.424 8.905 -70.816 
5.198 8.753 -70.744 
-9.890 12.247 -72.248 
-9.876 12.338 -72.421 
-0.694 4.701 -62.931 
-0.559 4.719 -63.007 
13.961 -3.182 -69.278 
13.969 -3.337 -69.529 
-11.540 6.013 -68.393 
-11.548 6.254 -68.315 
2.455 2.827 -70.686 
2.539 2.738 -70.896 
-7.180 -7.880 -62.221 
-7.261 -7.932 -62.542 
-2.441 10.688 -72.376 
-2.665 10.810 -72.361 
3.878 -10.674 -68.456 
4.078 -10.549 -68.411 
1.429 3.250 -67.983 
1.560 3.239 -68.139 
-2.052 3.059 -64.185 
-1.817 3.057 -64.086 
-15.496 -1.800 -74.913 
-15.020 -1.534 -75.218 
-2.331 9.026 -74.152 
-2.389 9.192 -74.421 
-9.448 8.548 -68.885 
-9.354 8.390 -68.714 
-5.158 6.405 -68.309 
-5.073 6.822 -68.444 
-10.170 -9.789 -68.662 
-10.017 -9.634 -68.880 
-0.316 5.911 -69.638 
-0.254 5.956 -69.820 
-3.550 3.887 -65.170 
-3.350 4.058 -65.020 
-5.743 -0.862 -65.945 
-5.644 -0.597 -66.282 
-2.894 3.493 -75.418 
-2.789 3.598 -75.734 
-0.437 -9.759 -62.449 
-0.510 -9.825 -62.619 
-6.437 3.666 -61.969 
-6.283 3.819 -61.927 
6.954 3.516 -63.227 
6.925 3.757 -63.395 
-11.465 1.818 -63.536 
-11.523 1.912 -63.765 
-7.108 12.200 -71.817 
-7.359 12.318 -71.947 
-0.314 3.413 -67.718 
-0.016 3.477 -67.735 
10.818 6.904 -70.759 
11.021 6.800 -71.039 
4.569 2.158 -61.332 
4.572 2.329 -61.407 
0.183 -2.651 -64.116 
0.118 -2.667 -64.417 
-11.684 8.032 -68.163 
-11.574 8.141 -67.781 
13.116 -7.167 -70.898 
12.995 -7.378 -71.180 
-9.637 -11.312 -71.639 
-9.371 -11.182 -71.426 
8.688 1.455 -64.270 
8.780 1.486 -64.337 
-4.293 3.667 -63.747 
-4.277 3.634 -63.609 
-7.762 -1.713 -76.423 
-7.717 -1.544 -76.589 
6.401 -0.558 -66.019 
6.528 -0.493 -66.371 
7.468 -0.293 -66.579 
7.647 -0.114 -66.926 
-5.430 8.576 -61.452 
-5.223 8.800 -61.242 
-5.647 -11.098 -63.210 
-5.793 -11.374 -63.019 
-7.361 4.213 -67.172 
-7.278 4.558 -67.188 
-5.812 9.096 -74.178 
-5.805 9.327 -74.332 
-1.833 -8.360 -68.276 
-1.585 -8.287 -68.148 
-5.203 2.377 -76.984 
-5.273 2.593 -77.185 
3.442 9.674 -64.938 
3.553 9.667 -64.872 
-7.319 -10.700 -71.158 
-7.043 -10.600 -71.026 
7.629 6.164 -69.839 
7.872 6.137 -70.107 
3.216 -8.421 -64.366 
2.986 -8.276 -64.494 
-7.255 7.483 -59.795 
-7.274 7.634 -59.736 
-9.244 -2.301 -63.678 
-9.344 -2.282 -64.000 
-9.977 -4.171 -62.973 
-9.922 -4.166 -63.041 
6.529 -6.126 -63.545 
6.540 -6.043 -63.645 
-6.818 11.034 -63.444 
-6.751 11.256 -63.496 
-0.719 -11.910 -69.474 
-0.522 -11.848 -69.368 
8.389 5.853 -67.632 
8.386 5.723 -67.628 
-3.211 -7.725 -70.277 
-3.053 -7.704 -70.276 
15.237 -4.217 -70.123 
15.346 -4.360 -70.310 
-3.385 1.155 -62.511 
-3.313 1.168 -62.564 
-12.475 5.358 -67.558 
-12.461 5.610 -67.539 
2.440 3.575 -63.401 
2.162 3.595 -63.561 
2.265 -6.667 -65.094 
2.289 -6.704 -65.570 
7.659 3.382 -63.707 
7.607 3.567 -63.899 
2.505 2.987 -68.371 
2.698 2.913 -68.500 
12.253 2.592 -73.956 
12.333 2.692 -74.401 
5.686 -3.304 -62.712 
5.769 -3.021 -63.067 
7.842 5.401 -64.587 
7.777 5.545 -64.865 
10.913 9.313 -71.550 
10.979 9.320 -71.824 
-8.199 1.923 -62.369 
-8.208 2.067 -62.542 
-0.706 1.376 -62.156 
-0.760 1.516 -62.191 
-13.638 6.342 -74.976 
-13.663 6.521 -75.070 
-9.223 9.677 -67.496 
-9.079 9.614 -67.329 
9.899 8.549 -66.525 
9.935 8.511 -66.516 
8.701 -7.829 -71.795 
8.816 -7.710 -71.813 
7.486 9.007 -66.174 
7.537 8.826 -66.003 
0.894 -11.960 -66.082 
1.302 -12.114 -66.087 
-1.743 -5.502 -70.689 
-1.471 -5.343 -70.909 
7.168 6.935 -71.239 
7.126 6.831 -71.327 
-8.591 9.287 -65.161 
-8.434 9.233 -64.940 
3.886 6.973 -65.868 
4.024 7.116 -65.924 
-4.077 9.974 -64.868 
-4.409 9.858 -64.735 
5.232 0.707 -63.077 
5.324 0.867 -63.151 
-4.919 3.383 -75.281 
-4.803 3.549 -75.581 
9.721 -2.503 -64.417 
9.902 -2.508 -64.931 
6.773 -6.390 -72.871 
6.820 -6.393 -72.973 
7.365 0.655 -66.316 
7.472 0.751 -66.524 
-9.242 -3.000 -68.767 
-9.168 -2.787 -68.874 
-9.626 7.922 -65.094 
-9.457 8.004 -64.952 
-12.620 10.991 -76.664 
-12.682 11.089 -76.963 
-13.221 5.696 -68.724 
-13.063 5.910 -68.736 
-11.315 7.382 -70.160 
-11.203 7.545 -69.981 
-10.002 5.392 -62.095 
-9.902 5.602 -62.207 
-6.241 -3.477 -70.300 
-6.071 -3.346 -70.330 
5.965 2.700 -62.653 
5.906 2.809 -62.765 
1.526 -1.607 -65.552 
1.501 -1.587 -65.744 
13.077 -5.345 -71.939 
13.092 -5.354 -72.301 
-1.607 -9.663 -65.026 
-1.692 -9.643 -64.949 
12.844 12.910 -68.071 
12.973 12.698 -67.878 
-1.911 -10.325 -70.021 
-1.709 -10.345 -70.052 
-0.223 5.964 -62.552 
-0.256 5.945 -62.453 
-7.452 11.111 -67.430 
-7.675 11.140 -67.486 
8.870 -3.701 -63.253 
8.988 -3.551 -63.621 
-12.343 12.358 -69.565 
-12.259 12.719 -69.402 
6.919 -8.941 -65.572 
6.844 -8.861 -65.841 
4.904 -4.615 -64.065 
4.881 -4.372 -64.388 
13.628 -5.681 -70.742 
13.717 -5.808 -71.059 
-11.935 10.263 -65.913 
-12.008 10.362 -65.604 
-3.157 -5.060 -62.935 
-3.134 -5.117 -63.315 
3.456 -11.435 -65.799 
3.694 -11.241 -65.896 
6.640 10.157 -68.638 
6.574 10.010 -68.608 
-11.016 6.739 -66.044 
-10.945 6.938 -65.996 
-10.201 0.866 -63.755 
-10.188 0.999 -64.005 
12.731 -9.829 -73.582 
12.797 -9.765 -73.661 
-9.554 0.605 -74.449 
-9.386 0.613 -74.272 
4.592 5.060 -64.444 
4.290 5.063 -64.500 
-10.114 -8.699 -68.014 
-9.951 -8.589 -68.310 
1.829 7.984 -75.004 
1.739 7.900 -75.210 
7.902 8.812 -65.082 
8.051 8.786 -64.897 
1.002 9.485 -63.557 
1.099 9.742 -63.490 
-11.481 -5.376 -70.870 
-11.328 -5.233 -71.002 
-10.932 -7.779 -69.202 
[...]
POINT_DATA 920 
SCALARS Umean double 1 
LOOKUP_TABLE default
0.12917 
0.12917 
0.15736 
0.15736 
0.20503 
0.20503 
0.19540 
0.19540 
0.09410 
0.09410 
0.14390 
0.14390 
0.05221 
0.05221 
0.13278 
0.13278 
0.08408 
0.08408 
0.16185 
0.16185 
0.16376 
0.16376 
0.16776 
0.16776 
0.25004 
0.25004 
0.08610 
0.08610 
0.14220 
0.14220 
0.05052 
0.05052 
0.05835 
0.05835 
0.21336 
0.21336 
0.21456 
0.21456 
0.19190 
0.19190 
0.16125 
0.16125 
0.13513 
0.13513 
0.14850 
0.14850 
0.17872 
0.17872 
0.12715 
0.12715 
0.09159 
0.09159 
0.15087 
0.15087 
0.10978 
0.10978 
0.14361 
0.14361 
0.17030 
0.17030 
0.05977 
0.05977 
0.09188 
0.09188 
0.13307 
0.13307 
0.08322 
0.08322 
0.07916 
0.07916 
0.10324 
0.10324 
0.21583 
0.21583 
0.18399 
0.18399 
0.04515 
0.04515 
0.09063 
0.09063 
0.04212 
0.04212 
0.13931 
0.13931 
0.11246 
0.11246 
0.20245 
0.20245 
0.08460 
0.08460 
0.08644 
0.08644 
0.11687 
0.11687 
0.15711 
0.15711 
0.12550 
0.12550 
0.32283 
0.32283 
0.18645 
0.18645 
0.06092 
0.06092 
0.09823 
0.09823 
0.12603 
0.12603 
0.21499 
0.21499 
0.19309 
0.19309 
0.19878 
0.19878 
0.14956 
0.14956 
0.13548 
0.13548 
0.20715 
0.20715 
0.07615 
0.07615 
0.09650 
0.09650 
0.19903 
0.19903 
0.12430 
0.12430 
0.12718 
0.12718 
0.21347 
0.21347 
0.12214 
0.12214 
0.16535 
0.16535 
0.11593 
0.11593 
0.12434 
0.12434 
0.19473 
0.19473 
0.04554 
0.04554 
0.07731 
0.07731 
0.11520 
0.11520 
0.19295 
0.19295 
0.21354 
0.21354 
0.18131 
0.18131 
0.16800 
0.16800 
0.14985 
0.14985 
0.15174 
0.15174 
0.16045 
0.16045 
0.10998 
0.10998 
0.16712 
0.16712 
0.15158 
0.15158 
0.18511 
0.18511 
0.28912 
0.28912 
0.13515 
0.13515 
0.22569 
0.22569 
0.07828 
0.07828 
0.14458 
0.14458 
0.22078 
0.22078 
0.08343 
0.08343 
0.16013 
0.16013 
0.19136 
0.19136 
0.17096 
0.17096 
0.12107 
0.12107 
0.11142 
0.11142 
0.11614 
0.11614 
0.27636 
0.27636 
0.13508 
0.13508 
0.20288 
0.20288 
0.23637 
0.23637 
0.19134 
0.19134 
0.14086 
0.14086 
0.09799 
0.09799 
0.07798 
0.07798 
0.14756 
0.14756 
0.12672 
0.12672 
0.12153 
0.12153 
0.16756 
0.16756 
0.12775 
0.12775 
0.12005 
0.12005 
0.10200 
0.10200 
0.12750 
0.12750 
0.31239 
0.31239 
0.16069 
0.16069 
0.12554 
0.12554 
0.22324 
0.22324 
0.15408 
0.15408 
0.09873 
0.09873 
0.15144 
0.15144 
0.22000 
0.22000 
0.17458 
0.17458 
0.09822 
0.09822 
0.11055 
0.11055 
0.14760 
0.14760 
0.12712 
0.12712 
0.15315 
0.15315 
0.15263 
0.15263 
0.18057 
0.18057 
0.09337 
0.09337 
0.15418 
0.15418 
0.20610 
0.20610 
0.18620 
0.18620 
0.18236 
0.18236 
0.05898 
0.05898 
0.07140 
0.07140 
0.12056 
0.12056 
0.18991 
0.18991 
0.21476 
0.21476 
0.18515 
0.18515 
0.18301 
0.18301 
0.17760 
0.17760 
0.13886 
0.13886 
0.14424 
0.14424 
0.15162 
0.15162 
0.06466 
0.06466 
0.16093 
0.16093 
0.18138 
0.18138 
0.15026 
0.15026 
0.08161 
0.08161 
0.16885 
0.16885 
0.04380 
0.04380 
0.06521 
0.06521 
0.11882 
0.11882 
0.11607 
0.11607 
0.06505 
0.06505 
0.07970 
0.07970 
0.12971 
0.12971 
0.04517 
0.04517 
0.12655 
0.12655 
0.16069 
0.16069 
0.23902 
0.23902 
0.13582 
0.13582 
0.12183 
0.12183 
0.23153 
0.23153 
0.23076 
0.23076 
0.15988 
0.15988 
0.14096 
0.14096 
0.11263 
0.11263 
0.07704 
0.07704 
0.10186 
0.10186 
0.11467 
0.11467 
0.02656 
0.02656 
0.08323 
0.08323 
0.12709 
0.12709 
0.21806 
0.21806 
0.19214 
0.19214 
0.07128 
0.07128 
0.13821 
0.13821 
0.10323 
0.10323 
0.18800 
0.18800 
0.09942 
0.09942 
0.18098 
0.18098 
0.27248 
0.27248 
0.05617 
0.05617 
0.12642 
0.12642 
0.12479 
0.12479 
0.11774 
0.11774 
0.16035 
0.16035 
0.13314 
0.13314 
0.13337 
0.13337 
0.12908 
0.12908 
0.10835 
0.10835 
0.08353 
0.08353 
0.09733 
0.09733 
0.18121 
0.18121 
0.05821 
0.05821 
0.15719 
0.15719 
0.10267 
0.10267 
0.05304 
0.05304 
0.11587 
0.11587 
0.20727 
0.20727 
0.20245 
0.20245 
0.14525 
0.14525 
0.20243 
0.20243 
0.17645 
0.17645 
0.16629 
0.16629 
0.19247 
0.19247 
0.16100 
0.16100 
0.08195 
0.08195 
0.10834 
0.10834 
0.14174 
0.14174 
0.06061 
0.06061 
0.12208 
0.12208 
0.15358 
0.15358 
0.17768 
0.17768 
0.11999 
0.11999 
0.11948 
0.11948 
0.14137 
0.14137 
0.12378 
0.12378 
0.13098 
0.13098 
0.18996 
0.18996 
0.14121 
0.14121 
0.19978 
0.19978 
0.18093 
0.18093 
0.19706 
0.19706 
0.13780 
0.13780 
0.30184 
0.30184 
0.15548 
0.15548 
0.19868 
0.19868 
0.18028 
0.18028 
0.18589 
0.18589 
0.12035 
0.12035 
0.17789 
0.17789 
0.12919 
0.12919 
0.22859 
0.22859 
0.24984 
0.24984 
0.20012 
0.20012 
0.09689 
0.09689 
0.16469 
0.16469 
0.07802 
0.07802 
0.10739 
0.10739 
0.07593 
0.07593 
0.14916 
0.14916 
0.18216 
0.18216 
0.15903 
0.15903 
0.25418 
0.25418 
0.10622 
0.10622 
0.23385 
0.23385 
0.17796 
0.17796 
0.20146 
0.20146 
0.12433 
0.12433 
0.07513 
0.07513 
0.10936 
0.10936 
0.15697 
0.15697 
0.09258 
0.09258 
0.11829 
0.11829 
0.09453 
0.09453 
0.22740 
0.22740 
0.15075 
0.15075 
0.11761 
0.11761 
0.09121 
0.09121 
0.25593 
0.25593 
0.14393 
0.14393 
0.13025 
0.13025 
0.15906 
0.15906 
0.12651 
0.12651 
0.22227 
0.22227 
0.09909 
0.09909 
0.04891 
0.04891 
0.22984 
0.22984 
0.14604 
0.14604 
0.18981 
0.18981 
0.13922 
0.13922 
0.11805 
0.11805 
0.10883 
0.10883 
0.14291 
0.14291 
0.16340 
0.16340 
0.08661 
0.08661 
0.12095 
0.12095 
0.12058 
0.12058 
0.26565 
0.26565 
0.05993 
0.05993 
0.08211 
0.08211 
0.08807 
0.08807 
0.08045 
0.08045 
0.12607 
0.12607 
0.08866 
0.08866 
0.13286 
0.13286 
0.22824 
0.22824 
0.24131 
0.24131 
0.13991 
0.13991 
0.17221 
0.17221 
0.06800 
0.06800 
0.12790 
0.12790 
0.12057 
0.12057 
0.13297 
0.13297 
0.16509 
0.16509 
0.23640 
0.23640 
0.07083 
0.07083 
0.18776 
0.18776 
0.24854 
0.24854 
0.06881 
0.06881 
0.10804 
0.10804 
0.13364 
0.13364 
0.16260 
0.16260 
0.17035 
0.17035 
0.13397 
0.13397 
0.18814 
0.18814 
0.13674 
0.13674 
0.14344 
0.14344 
0.11811 
0.11811 
0.08846 
0.08846 
0.23633 
0.23633 
0.19484 
0.19484 
0.10683 
0.10683 
0.12021 
0.12021 
0.06066 
0.06066 
0.29005 
0.29005 
0.18609 
0.18609 
0.11112 
0.11112 
0.07344 
0.07344 
0.11059 
0.11059 
0.11259 
0.11259 
0.24432 
0.24432 
0.23776 
0.23776 
0.21378 
0.21378 
0.16654 
0.16654 
0.19519 
0.19519 
0.20497 
0.20497 
0.24484 
0.24484 
0.13465 
0.13465 
0.18973 
0.18973 
0.04851 
0.04851 
0.18029 
0.18029 
0.17860 
0.17860 
0.28513 
0.28513 
0.30487 
0.30487 
0.09030 
0.09030 
0.16381 
0.16381 
0.21466 
0.21466 
0.07181 
0.07181 
0.12087 
0.12087 
0.07642 
0.07642 
0.13528 
0.13528 
0.11847 
0.11847 
0.18264 
0.18264 
0.17180 
0.17180 
0.03493 
0.03493 
0.11778 
0.11778 
0.19725 
0.19725 
0.29364 
0.29364 
0.17699 
0.17699 
0.17105 
0.17105 
0.14305 
0.14305 
0.05979 
0.05979 
0.35038 
0.35038 
0.17025 
0.17025 
0.10918 
0.10918 
0.20542 
0.20542 
0.11623 
0.11623 
0.15694 
0.15694 
0.06638 
0.06638 
0.15432 
0.15432 
0.15087 
0.15087 
0.12400 
0.12400 
0.24043 
0.24043 
0.24060 
0.24060 
0.20872 
0.20872 
0.20866 
0.20866 
0.20948 
0.20948 
0.11977 
0.11977 
0.14576 
0.14576 
0.13928 
0.13928 
0.05636 
0.05636 
0.15303 
0.15303 
0.16064 
0.16064 
0.09216 
0.09216 
0.07272 
0.07272 
0.20447 
0.20447 
0.12236 
0.12236 
0.12447 
0.12447 
0.24017 
0.24017 
0.07386 
0.07386 
0.27831 
0.27831 
0.13834 
0.13834 
0.12565 
0.12565 
0.19379 
0.19379 
0.17131 
0.17131 
0.14434 
0.14434 
0.24563 
0.24563 
0.11196 
0.11196 
0.33098 
0.33098 
0.17583 
0.17583 
0.16429 
0.16429 
0.07515 
0.07515 
0.12934 
0.12934 
0.14647 
0.14647 
0.08303 
0.08303 
0.03136 
0.03136 
0.14291 
0.14291 
0.13902 
0.13902 
0.18796 
0.18796 
0.05249 
0.05249 
0.14614 
0.14614 
0.09218 
0.09218 
0.28150 
0.28150 
0.10654 
0.10654 
0.24366 
0.24366 
0.23075 
0.23075 
0.09836 
0.09836 
0.18794 
0.18794 
0.17077 
0.17077 
0.11950 
0.11950 
0.15406 
0.15406 
0.09542 
0.09542 
0.29001 
0.29001 
0.20012 
0.20012 
0.13813 
0.13813 
0.05555 
0.05555 
0.28928 
0.28928 
0.08129 
0.08129 
0.04177 
0.04177 
0.07279 
0.07279 
0.07394 
0.07394 
0.15338 
0.15338 
0.07855 
0.07855 
0.22420 
0.22420 
0.23175 
0.23175 
0.05075 
0.05075 
0.07117 
0.07117 
0.06103 
0.06103 
0.27721 
0.27721 
0.21480 
0.21480 
0.04003 
0.04003 
0.12391 
0.12391 
0.19733 
0.19733 
0.12114 
0.12114 
0.07281 
0.07281 
0.12337 
0.12337 
0.23622 
0.23622 
0.12019 
0.12019 
0.11001 
0.11001 
0.04572 
0.04572 
0.27621 
0.27621 
0.17485 
0.17485 
0.09454 
0.09454 
0.10855 
0.10855 
0.11687 
0.11687 
0.14472 
0.14472 
0.11058 
0.11058 
0.11554 
0.11554 
0.07753 
0.07753 
0.09410 
0.09410 
0.10721 
0.10721 
0.16178 
0.16178 
0.14289 
0.14289 
0.09199 
0.09199 
0.19321 
0.19321 
SCALARS Umean_X double 1 
LOOKUP_TABLE default
0.00850 
0.00850 
-0.02650 
-0.02650 
0.13150 
0.13150 
0.02200 
0.02200 
-0.02200 
-0.02200 
0.07450 
0.07450 
0.00700 
0.00700 
0.06900 
0.06900 
0.01800 
0.01800 
0.11550 
0.11550 
0.03500 
0.03500 
-0.01600 
-0.01600 
0.02950 
0.02950 
-0.01150 
-0.01150 
-0.12100 
-0.12100 
0.01400 
0.01400 
-0.03050 
-0.03050 
-0.08150 
-0.08150 
0.12400 
0.12400 
0.09400 
0.09400 
-0.16100 
-0.16100 
0.10700 
0.10700 
-0.05700 
-0.05700 
-0.00450 
-0.00450 
0.08950 
0.08950 
-0.06600 
-0.06600 
0.12600 
0.12600 
0.08400 
0.08400 
0.11450 
0.11450 
0.05100 
0.05100 
0.01950 
0.01950 
0.02950 
0.02950 
0.10550 
0.10550 
0.00200 
0.00200 
0.04800 
0.04800 
0.00550 
0.00550 
0.04550 
0.04550 
0.10500 
0.10500 
0.03550 
0.03550 
-0.00150 
-0.00150 
0.02050 
0.02050 
0.13050 
0.13050 
0.06000 
0.06000 
0.13850 
0.13850 
0.00400 
0.00400 
-0.02000 
-0.02000 
0.05100 
0.05100 
0.07250 
0.07250 
-0.01150 
-0.01150 
0.13700 
0.13700 
0.01750 
0.01750 
0.00650 
0.00650 
0.05900 
0.05900 
0.10200 
0.10200 
-0.03350 
-0.03350 
0.03000 
0.03000 
0.04300 
0.04300 
0.04450 
0.04450 
0.11250 
0.11250 
0.16550 
0.16550 
-0.05450 
-0.05450 
-0.02650 
-0.02650 
0.08250 
0.08250 
0.04150 
0.04150 
0.07000 
0.07000 
0.07850 
0.07850 
0.05050 
0.05050 
0.04700 
0.04700 
0.05850 
0.05850 
0.08450 
0.08450 
0.00900 
0.00900 
-0.01450 
-0.01450 
0.06300 
0.06300 
0.07300 
0.07300 
0.06250 
0.06250 
-0.12800 
-0.12800 
0.17650 
0.17650 
-0.07650 
-0.07650 
0.07600 
0.07600 
0.07800 
0.07800 
0.07200 
0.07200 
0.00450 
0.00450 
0.01350 
0.01350 
0.11300 
0.11300 
0.03950 
0.03950 
-0.01800 
-0.01800 
-0.11100 
-0.11100 
0.08750 
0.08750 
0.00150 
0.00150 
0.10450 
0.10450 
0.07700 
0.07700 
-0.01950 
-0.01950 
0.04150 
0.04150 
0.07300 
0.07300 
0.05100 
0.05100 
0.10950 
0.10950 
-0.00700 
-0.00700 
-0.10550 
-0.10550 
0.18200 
0.18200 
0.03450 
0.03450 
0.15300 
0.15300 
0.02650 
0.02650 
0.13200 
0.13200 
-0.11300 
-0.11300 
0.00700 
0.00700 
0.06750 
0.06750 
0.00400 
0.00400 
-0.00400 
-0.00400 
0.04200 
0.04200 
-0.04050 
-0.04050 
-0.11200 
-0.11200 
0.10000 
0.10000 
0.06550 
0.06550 
0.11750 
0.11750 
0.23800 
0.23800 
-0.02900 
-0.02900 
0.04700 
0.04700 
0.04250 
0.04250 
0.07650 
0.07650 
0.03100 
0.03100 
0.10000 
0.10000 
0.04950 
0.04950 
0.05250 
0.05250 
-0.03650 
-0.03650 
0.07700 
0.07700 
-0.01450 
-0.01450 
-0.02900 
-0.02900 
-0.12550 
-0.12550 
0.14900 
0.14900 
0.10150 
0.10150 
0.00150 
0.00150 
-0.03250 
-0.03250 
0.05500 
0.05500 
-0.06050 
-0.06050 
0.13300 
0.13300 
0.04600 
0.04600 
0.00800 
0.00800 
0.02250 
0.02250 
0.06350 
0.06350 
0.08950 
0.08950 
0.10350 
0.10350 
-0.07300 
-0.07300 
0.04150 
0.04150 
0.00350 
0.00350 
0.12400 
0.12400 
-0.03500 
-0.03500 
0.05550 
0.05550 
0.13800 
0.13800 
0.12150 
0.12150 
-0.11500 
-0.11500 
-0.00950 
-0.00950 
-0.05000 
-0.05000 
0.02750 
0.02750 
0.00550 
0.00550 
0.03350 
0.03350 
0.09850 
0.09850 
-0.00150 
-0.00150 
0.07900 
0.07900 
0.05450 
0.05450 
0.03600 
0.03600 
0.00700 
0.00700 
-0.13900 
-0.13900 
0.01200 
0.01200 
-0.02600 
-0.02600 
0.09650 
0.09650 
0.04000 
0.04000 
0.04150 
0.04150 
-0.03250 
-0.03250 
0.03300 
0.03300 
-0.00450 
-0.00450 
-0.02700 
-0.02700 
-0.01250 
-0.01250 
0.07200 
0.07200 
0.01800 
0.01800 
0.05750 
0.05750 
0.02550 
0.02550 
0.20400 
0.20400 
0.13600 
0.13600 
-0.02100 
-0.02100 
0.07850 
0.07850 
0.06900 
0.06900 
-0.16600 
-0.16600 
0.04600 
0.04600 
0.05800 
0.05800 
0.09050 
0.09050 
0.02350 
0.02350 
0.05350 
0.05350 
0.03700 
0.03700 
0.08450 
0.08450 
-0.03100 
-0.03100 
0.07900 
0.07900 
0.05600 
0.05600 
0.05000 
0.05000 
0.08500 
0.08500 
-0.02950 
-0.02950 
-0.01250 
-0.01250 
0.00750 
0.00750 
-0.04250 
-0.04250 
0.06450 
0.06450 
0.10100 
0.10100 
-0.01650 
-0.01650 
-0.11150 
-0.11150 
0.05900 
0.05900 
0.04200 
0.04200 
-0.03750 
-0.03750 
-0.01150 
-0.01150 
0.04450 
0.04450 
-0.03650 
-0.03650 
0.01150 
0.01150 
0.11900 
0.11900 
-0.03300 
-0.03300 
0.03550 
0.03550 
0.00650 
0.00650 
0.03300 
0.03300 
0.08400 
0.08400 
-0.15100 
-0.15100 
0.08150 
0.08150 
-0.04500 
-0.04500 
0.07450 
0.07450 
0.04850 
0.04850 
0.07650 
0.07650 
0.02650 
0.02650 
0.11050 
0.11050 
-0.14050 
-0.14050 
0.15250 
0.15250 
0.02550 
0.02550 
-0.15900 
-0.15900 
-0.09700 
-0.09700 
0.13500 
0.13500 
0.06200 
0.06200 
-0.01550 
-0.01550 
-0.04800 
-0.04800 
0.03450 
0.03450 
0.02250 
0.02250 
-0.00400 
-0.00400 
0.06700 
0.06700 
-0.14250 
-0.14250 
-0.01300 
-0.01300 
0.02100 
0.02100 
-0.02650 
-0.02650 
-0.09900 
-0.09900 
0.02250 
0.02250 
0.03550 
0.03550 
0.05200 
0.05200 
0.04850 
0.04850 
-0.00750 
-0.00750 
0.00900 
0.00900 
0.15250 
0.15250 
0.00500 
0.00500 
0.09800 
0.09800 
0.01950 
0.01950 
0.19650 
0.19650 
0.11350 
0.11350 
0.04450 
0.04450 
0.09050 
0.09050 
0.13650 
0.13650 
-0.00050 
-0.00050 
-0.01800 
-0.01800 
0.07050 
0.07050 
0.08650 
0.08650 
0.02500 
0.02500 
-0.09000 
-0.09000 
0.02250 
0.02250 
0.13100 
0.13100 
0.05500 
0.05500 
-0.01200 
-0.01200 
0.14700 
0.14700 
0.01550 
0.01550 
0.03100 
0.03100 
-0.02600 
-0.02600 
0.01550 
0.01550 
0.06250 
0.06250 
0.13400 
0.13400 
-0.03000 
-0.03000 
-0.01600 
-0.01600 
0.10150 
0.10150 
0.00650 
0.00650 
0.01150 
0.01150 
0.07650 
0.07650 
-0.07050 
-0.07050 
0.05400 
0.05400 
0.04650 
0.04650 
0.16000 
0.16000 
0.01750 
0.01750 
0.06700 
0.06700 
0.06950 
0.06950 
0.02900 
0.02900 
-0.00700 
-0.00700 
0.06750 
0.06750 
-0.09050 
-0.09050 
-0.17250 
-0.17250 
0.03750 
0.03750 
0.04100 
0.04100 
0.11500 
0.11500 
0.01100 
0.01100 
-0.00500 
-0.00500 
0.08000 
0.08000 
-0.01900 
-0.01900 
-0.00000 
-0.00000 
0.07100 
0.07100 
-0.04350 
-0.04350 
0.07150 
0.07150 
0.12350 
0.12350 
0.06350 
0.06350 
0.10750 
0.10750 
0.03000 
0.03000 
0.01100 
0.01100 
0.12650 
0.12650 
0.03700 
0.03700 
-0.15150 
-0.15150 
-0.05950 
-0.05950 
0.03500 
0.03500 
0.00500 
0.00500 
-0.00050 
-0.00050 
0.13800 
0.13800 
0.12950 
0.12950 
0.07950 
0.07950 
-0.07650 
-0.07650 
-0.03350 
-0.03350 
0.04100 
0.04100 
-0.02750 
-0.02750 
0.06700 
0.06700 
0.00750 
0.00750 
-0.02800 
-0.02800 
-0.03400 
-0.03400 
-0.20200 
-0.20200 
0.20900 
0.20900 
0.02750 
0.02750 
0.07300 
0.07300 
0.06600 
0.06600 
0.18600 
0.18600 
0.00550 
0.00550 
0.09850 
0.09850 
-0.12400 
-0.12400 
-0.03950 
-0.03950 
0.14200 
0.14200 
-0.09700 
-0.09700 
0.15800 
0.15800 
-0.04100 
-0.04100 
0.05650 
0.05650 
0.11300 
0.11300 
0.03700 
0.03700 
-0.04700 
-0.04700 
-0.06050 
-0.06050 
0.06550 
0.06550 
0.08650 
0.08650 
-0.04000 
-0.04000 
-0.05650 
-0.05650 
0.17000 
0.17000 
-0.00950 
-0.00950 
0.03400 
0.03400 
0.11700 
0.11700 
0.10800 
0.10800 
-0.00650 
-0.00650 
0.12400 
0.12400 
-0.11650 
-0.11650 
-0.02950 
-0.02950 
0.16000 
0.16000 
-0.07600 
-0.07600 
0.10700 
0.10700 
-0.20350 
-0.20350 
0.05050 
0.05050 
0.14450 
0.14450 
0.02300 
0.02300 
-0.09300 
-0.09300 
0.11150 
0.11150 
-0.05550 
-0.05550 
0.10100 
0.10100 
0.10200 
0.10200 
0.07300 
0.07300 
0.06050 
0.06050 
0.04950 
0.04950 
-0.07700 
-0.07700 
0.07950 
0.07950 
0.09800 
0.09800 
0.03300 
0.03300 
0.01150 
0.01150 
0.08800 
0.08800 
-0.02750 
-0.02750 
-0.04750 
-0.04750 
0.09700 
0.09700 
-0.08050 
-0.08050 
-0.01200 
-0.01200 
-0.07000 
-0.07000 
0.04300 
0.04300 
-0.12700 
-0.12700 
0.05900 
0.05900 
0.08000 
0.08000 
0.18650 
0.18650 
-0.04850 
-0.04850 
-0.06600 
-0.06600 
0.17200 
0.17200 
0.06100 
0.06100 
0.19850 
0.19850 
-0.01150 
-0.01150 
-0.16050 
-0.16050 
-0.06100 
-0.06100 
0.06400 
0.06400 
-0.04250 
-0.04250 
0.06500 
0.06500 
0.01850 
0.01850 
0.13150 
0.13150 
0.04200 
0.04200 
0.03350 
0.03350 
-0.04550 
-0.04550 
0.12600 
0.12600 
0.04250 
0.04250 
-0.05500 
-0.05500 
0.02300 
0.02300 
0.06350 
0.06350 
0.04550 
0.04550 
0.09700 
0.09700 
0.06050 
0.06050 
0.03550 
0.03550 
0.03600 
0.03600 
0.01300 
0.01300 
0.06150 
0.06150 
0.06550 
0.06550 
0.06700 
0.06700 
0.01850 
0.01850 
0.02300 
0.02300 
0.14450 
0.14450 
-0.05750 
-0.05750 
0.03600 
0.03600 
0.01200 
0.01200 
0.03350 
0.03350 
0.11400 
0.11400 
-0.02950 
-0.02950 
0.18100 
0.18100 
0.18800 
0.18800 
-0.01750 
-0.01750 
0.00950 
0.00950 
0.05300 
0.05300 
0.10450 
0.10450 
0.20400 
0.20400 
0.00150 
0.00150 
0.04250 
0.04250 
0.12900 
0.12900 
0.05900 
0.05900 
-0.00650 
-0.00650 
0.12200 
0.12200 
0.14650 
0.14650 
0.05650 
0.05650 
-0.06550 
-0.06550 
-0.01450 
-0.01450 
0.16800 
0.16800 
0.13200 
0.13200 
0.07500 
0.07500 
0.04050 
0.04050 
0.09500 
0.09500 
-0.04350 
-0.04350 
0.03300 
0.03300 
0.07900 
0.07900 
0.06550 
0.06550 
0.08700 
0.08700 
0.10500 
0.10500 
0.11800 
0.11800 
-0.12250 
-0.12250 
0.03700 
0.03700 
0.14500 
0.14500 
SCALARS Umean_Y double 1 
LOOKUP_TABLE default
-0.02200 
-0.02200 
0.04950 
0.04950 
0.09350 
0.09350 
0.17950 
0.17950 
-0.00950 
-0.00950 
0.01650 
0.01650 
-0.03400 
-0.03400 
0.06200 
0.06200 
0.06100 
0.06100 
0.03450 
0.03450 
0.14050 
0.14050 
0.04250 
0.04250 
0.11700 
0.11700 
0.01500 
0.01500 
0.03200 
0.03200 
-0.03650 
-0.03650 
-0.04300 
-0.04300 
0.12500 
0.12500 
0.01450 
0.01450 
0.16450 
0.16450 
-0.00300 
-0.00300 
0.07300 
0.07300 
-0.11850 
-0.11850 
-0.06350 
-0.06350 
0.09000 
0.09000 
-0.03850 
-0.03850 
0.07500 
0.07500 
-0.00500 
-0.00500 
0.08300 
0.08300 
0.15100 
0.15100 
0.00050 
0.00050 
0.03050 
0.03050 
0.06050 
0.06050 
0.03150 
0.03150 
0.04350 
0.04350 
-0.00450 
-0.00450 
0.10500 
0.10500 
0.10250 
0.10250 
0.02700 
0.02700 
0.07350 
0.07350 
0.02950 
0.02950 
0.04400 
0.04400 
0.06850 
0.06850 
0.09200 
0.09200 
-0.05150 
-0.05150 
-0.03900 
-0.03900 
0.08900 
0.08900 
0.05400 
0.05400 
0.06700 
0.06700 
0.11900 
0.11900 
0.03650 
0.03650 
0.05700 
0.05700 
0.03750 
0.03750 
0.04600 
0.04600 
0.05900 
0.05900 
0.16150 
0.16150 
0.19150 
0.19150 
-0.07500 
-0.07500 
0.05700 
0.05700 
0.05850 
0.05850 
0.05250 
0.05250 
-0.08950 
-0.08950 
-0.05200 
-0.05200 
-0.03750 
-0.03750 
0.07150 
0.07150 
0.07200 
0.07200 
0.09750 
0.09750 
0.13050 
0.13050 
0.03700 
0.03700 
-0.05600 
-0.05600 
0.00300 
0.00300 
0.04200 
0.04200 
0.00850 
0.00850 
-0.05700 
-0.05700 
-0.13350 
-0.13350 
0.05450 
0.05450 
0.02150 
0.02150 
-0.00450 
-0.00450 
0.12650 
0.12650 
0.00650 
0.00650 
0.01050 
0.01050 
0.03400 
0.03400 
0.06700 
0.06700 
-0.02250 
-0.02250 
-0.02200 
-0.02200 
0.13600 
0.13600 
0.04300 
0.04300 
0.13650 
0.13650 
0.07800 
0.07800 
0.09800 
0.09800 
-0.01950 
-0.01950 
0.08050 
0.08050 
0.15450 
0.15450 
-0.08150 
-0.08150 
-0.05100 
-0.05100 
0.02350 
0.02350 
-0.01250 
-0.01250 
-0.04250 
-0.04250 
-0.02000 
-0.02000 
0.05700 
0.05700 
0.13300 
0.13300 
-0.05000 
-0.05000 
-0.03100 
-0.03100 
-0.07600 
-0.07600 
0.04550 
0.04550 
0.00900 
0.00900 
-0.07750 
-0.07750 
0.12050 
0.12050 
-0.04450 
-0.04450 
-0.02600 
-0.02600 
0.06100 
0.06100 
0.06250 
0.06250 
-0.00550 
-0.00550 
-0.00100 
-0.00100 
0.13300 
0.13300 
0.08300 
0.08300 
-0.07900 
-0.07900 
0.20850 
0.20850 
0.07750 
0.07750 
0.02250 
0.02250 
0.08550 
0.08550 
0.13250 
0.13250 
0.05250 
0.05250 
-0.03300 
-0.03300 
0.07650 
0.07650 
0.12050 
0.12050 
0.04700 
0.04700 
0.05900 
0.05900 
0.03200 
0.03200 
-0.05200 
-0.05200 
0.08550 
0.08550 
-0.00800 
-0.00800 
0.05450 
0.05450 
-0.10550 
-0.10550 
0.06500 
0.06500 
0.01550 
0.01550 
-0.01650 
-0.01650 
0.08450 
0.08450 
0.03250 
0.03250 
0.08950 
0.08950 
0.11200 
0.11200 
-0.13800 
-0.13800 
0.17250 
0.17250 
0.11550 
0.11550 
0.03650 
0.03650 
0.10800 
0.10800 
-0.00350 
-0.00350 
0.05000 
0.05000 
-0.01350 
-0.01350 
0.07250 
0.07250 
0.07550 
0.07550 
0.00950 
0.00950 
0.00250 
0.00250 
0.04150 
0.04150 
0.11100 
0.11100 
0.03100 
0.03100 
-0.06500 
-0.06500 
0.01050 
0.01050 
-0.07150 
-0.07150 
0.00650 
0.00650 
0.12600 
0.12600 
0.01000 
0.01000 