# vtk DataFile Version 2.1 
Trajects from timestep 160 with color option 
ASCII 
 
DATASET POLYDATA POINTS 930 float 
0.822 5.487 -71.908 
0.939 5.567 -72.277 
-5.097 -1.474 -70.636 
-5.129 -1.202 -71.099 
-7.189 -4.037 -74.119 
-7.248 -4.002 -74.338 
1.174 6.483 -72.122 
1.179 6.526 -72.377 
6.912 2.167 -72.732 
7.022 2.370 -73.236 
-3.540 -5.615 -75.072 
-3.403 -5.535 -75.367 
14.779 2.949 -71.669 
14.814 3.214 -71.748 
5.381 3.957 -69.353 
5.548 4.164 -69.753 
1.980 4.634 -71.297 
2.126 4.746 -71.597 
-0.626 5.955 -71.141 
-0.498 6.119 -71.432 
4.465 -11.606 -73.255 
4.645 -11.448 -73.282 
-7.627 1.174 -69.734 
-7.533 1.419 -69.953 
2.880 0.551 -68.443 
3.165 0.915 -68.542 
-5.819 -3.563 -70.658 
-5.675 -3.313 -70.894 
-0.096 8.897 -72.800 
-0.081 9.001 -72.783 
-1.056 4.106 -68.557 
-0.972 4.197 -68.853 
2.298 6.364 -75.146 
2.343 6.533 -75.435 
4.150 8.714 -69.935 
4.147 8.709 -69.940 
-9.106 6.043 -70.634 
-9.047 6.251 -70.862 
5.096 2.937 -67.453 
5.091 3.110 -67.852 
-1.126 -1.788 -71.789 
-1.119 -1.430 -71.839 
1.309 -4.767 -70.337 
1.522 -4.554 -70.793 
-9.066 3.700 -65.877 
-8.719 3.895 -65.920 
1.863 11.821 -71.647 
1.601 11.709 -71.648 
-0.186 -4.247 -69.493 
0.010 -4.033 -69.914 
-0.919 -3.756 -71.185 
-0.856 -3.514 -71.575 
5.255 -2.504 -67.914 
5.401 -2.435 -68.162 
-3.402 0.544 -69.218 
-3.271 0.866 -69.569 
-7.218 2.556 -73.928 
-6.981 2.793 -73.955 
0.870 5.941 -66.434 
0.947 6.056 -66.632 
4.524 6.440 -73.174 
4.578 6.470 -73.384 
-1.683 -10.324 -69.963 
-1.525 -10.207 -70.282 
-8.110 2.702 -65.883 
-7.828 2.979 -65.994 
-0.256 2.213 -67.098 
-0.205 2.406 -67.063 
-5.328 -2.310 -71.106 
-5.265 -2.088 -71.564 
-3.936 -11.795 -70.342 
-3.740 -11.676 -70.531 
-1.522 -8.119 -72.273 
-1.440 -8.042 -72.532 
9.984 9.335 -68.059 
9.960 9.285 -68.124 
6.585 7.321 -71.900 
6.765 7.494 -71.993 
-2.530 3.292 -69.192 
-2.489 3.510 -69.498 
13.870 5.582 -71.713 
13.924 5.850 -71.922 
-2.222 1.591 -67.593 
-2.099 1.789 -67.823 
-11.016 0.878 -70.002 
-10.763 1.112 -70.132 
-6.834 9.206 -72.957 
-6.847 9.489 -73.241 
9.533 -3.080 -70.485 
9.826 -2.946 -70.855 
-3.807 -3.609 -69.822 
-3.653 -3.490 -70.202 
-2.334 4.764 -67.219 
-2.293 4.997 -67.574 
1.663 5.277 -67.413 
1.733 5.328 -67.674 
13.032 -1.287 -69.886 
13.143 -1.083 -70.127 
2.457 -4.498 -76.696 
2.654 -4.387 -76.866 
8.384 5.143 -75.215 
8.582 5.301 -75.457 
-4.784 5.054 -74.923 
-4.695 5.323 -75.246 
-13.616 9.457 -70.021 
-13.528 9.654 -70.274 
-2.233 -2.574 -71.351 
-2.234 -2.242 -71.330 
-13.005 1.897 -69.213 
-12.688 2.006 -69.265 
-9.859 6.674 -76.979 
-9.783 6.815 -77.171 
1.817 3.403 -65.990 
1.986 3.600 -66.043 
4.999 -9.958 -70.478 
5.145 -9.876 -70.581 
15.086 4.937 -68.661 
15.133 5.168 -68.803 
6.091 4.401 -71.135 
6.207 4.630 -71.520 
-11.464 7.107 -62.867 
-11.324 7.494 -62.638 
0.216 10.527 -71.165 
0.079 10.600 -70.990 
-1.661 -11.076 -70.684 
-1.580 -10.962 -70.725 
3.027 -1.799 -68.590 
3.293 -1.601 -68.980 
3.698 5.520 -67.432 
3.752 5.506 -67.685 
-3.032 -9.315 -66.830 
-2.931 -9.234 -67.145 
6.884 4.285 -75.227 
7.036 4.422 -75.550 
6.071 12.220 -69.234 
5.937 12.050 -69.131 
4.949 -0.761 -67.225 
5.050 -0.722 -67.347 
7.154 1.676 -71.428 
7.388 1.971 -71.977 
-9.006 -7.933 -74.163 
-8.828 -7.859 -74.282 
4.624 -7.953 -76.208 
4.745 -7.900 -76.365 
-12.637 -2.699 -66.907 
-12.320 -2.333 -66.807 
11.310 1.790 -69.680 
11.236 1.892 -69.995 
13.853 9.105 -73.480 
14.062 9.266 -73.763 
1.401 -5.159 -69.983 
1.602 -4.931 -70.367 
-4.751 -6.733 -73.056 
-4.592 -6.472 -73.370 
1.467 6.154 -66.484 
1.500 6.248 -66.681 
6.377 -5.179 -70.722 
6.693 -5.091 -71.149 
-1.882 -12.020 -69.330 
-1.688 -11.905 -69.313 
7.706 -6.830 -73.307 
7.772 -6.753 -73.624 
-4.897 7.852 -68.087 
-5.045 7.993 -68.150 
-2.805 5.470 -63.163 
-2.675 5.566 -63.218 
7.025 -11.525 -71.844 
7.213 -11.463 -71.947 
15.674 -4.257 -69.828 
15.816 -4.305 -70.077 
-0.125 1.920 -77.310 
-0.026 2.015 -77.669 
-3.101 -4.454 -70.726 
-3.082 -4.156 -70.961 
0.154 -2.165 -64.365 
0.435 -1.962 -64.899 
16.804 4.899 -70.342 
17.009 5.133 -70.439 
-8.915 10.550 -68.001 
-8.951 10.652 -68.195 
5.076 0.953 -71.752 
5.337 1.248 -72.101 
8.880 0.066 -64.894 
9.136 0.133 -65.323 
-3.650 -8.684 -68.754 
-3.695 -8.658 -68.889 
-13.824 6.511 -66.111 
-13.850 6.679 -65.989 
-3.846 -6.803 -68.594 
-3.758 -6.720 -68.936 
3.973 8.299 -66.761 
4.003 8.330 -66.985 
-5.645 -7.859 -67.962 
-5.457 -7.702 -68.083 
3.455 6.662 -66.640 
3.535 6.688 -66.812 
12.236 -1.839 -69.399 
12.397 -1.771 -69.793 
-4.284 0.638 -62.536 
-3.994 0.806 -62.942 
3.127 -5.904 -67.445 
3.331 -6.015 -67.785 
13.481 10.032 -69.875 
13.696 9.849 -70.034 
10.332 -12.833 -71.335 
10.526 -12.646 -71.509 
-5.466 9.364 -64.202 
-5.478 9.507 -64.278 
-6.173 -11.565 -68.725 
-5.998 -11.473 -68.809 
4.796 1.575 -72.408 
4.961 1.774 -72.660 
1.784 -12.720 -67.194 
2.007 -12.838 -67.137 
-1.471 8.565 -68.061 
-1.600 8.625 -67.970 
2.362 3.140 -63.450 
2.276 3.206 -63.683 
10.676 2.737 -65.899 
10.714 2.912 -65.998 
14.169 6.002 -67.052 
14.266 6.180 -67.199 
5.952 -4.651 -64.201 
6.135 -4.478 -64.910 
8.046 -4.167 -68.367 
8.381 -4.051 -68.685 
-14.152 -0.479 -72.195 
-14.008 -0.088 -72.316 
-8.336 -11.066 -68.416 
-8.067 -10.825 -68.480 
15.572 7.181 -65.804 
15.372 7.375 -65.936 
1.663 -3.380 -67.460 
1.877 -3.253 -67.931 
-8.891 8.714 -66.101 
-8.955 8.766 -66.220 
10.129 9.690 -68.489 
10.212 9.629 -68.544 
4.480 0.771 -71.867 
4.811 1.082 -72.021 
-9.934 5.648 -62.143 
-9.794 5.830 -62.022 
-3.040 4.289 -66.146 
-2.890 4.432 -66.396 
-5.495 -2.555 -69.597 
-5.508 -2.304 -69.916 
15.403 7.800 -76.822 
15.514 7.945 -77.172 
-2.816 -7.514 -63.382 
-2.768 -7.485 -63.778 
-0.647 6.947 -68.202 
-0.466 7.188 -68.457 
-11.361 12.618 -66.737 
-11.257 12.786 -66.715 
1.266 1.149 -63.258 
1.357 0.942 -63.473 
5.336 6.144 -71.578 
5.379 6.271 -71.820 
-8.271 -2.349 -74.069 
-8.397 -2.249 -74.216 
3.667 -8.120 -67.969 
4.003 -8.145 -67.922 
5.587 -2.024 -68.115 
5.657 -2.019 -68.450 
1.880 10.339 -66.923 
1.726 10.279 -66.810 
3.197 -9.447 -63.260 
3.109 -9.337 -63.378 
0.921 -6.430 -65.650 
1.064 -6.434 -66.101 
0.058 2.935 -61.874 
0.264 2.947 -61.935 
-12.766 2.329 -70.728 
-12.456 2.570 -70.846 
4.236 11.201 -67.119 
4.143 11.268 -67.096 
4.323 6.491 -71.432 
4.366 6.634 -71.730 
-3.004 -11.445 -69.749 
-2.841 -11.332 -69.811 
-6.304 -4.379 -75.405 
-6.204 -4.231 -75.598 
-7.059 12.061 -64.253 
-7.202 12.229 -64.270 
8.771 2.606 -68.643 
8.799 2.600 -68.952 
-10.589 9.074 -67.200 
-10.651 9.106 -67.392 
-9.103 11.191 -62.020 
-9.031 11.456 -61.956 
-5.933 -10.527 -67.309 
-5.691 -10.264 -67.187 
3.737 7.970 -73.705 
3.867 7.976 -73.745 
4.428 -7.738 -68.988 
4.693 -7.591 -69.068 
-4.082 -10.915 -67.095 
-3.941 -10.846 -67.273 
1.096 5.608 -63.397 
1.089 5.724 -63.665 
13.681 4.162 -68.551 
13.729 4.308 -68.708 
0.068 4.620 -63.491 
0.079 4.701 -63.797 
6.866 -6.586 -72.812 
7.010 -6.466 -73.149 
4.641 -9.675 -63.048 
4.555 -9.559 -63.101 
-7.029 7.305 -73.333 
-6.962 7.611 -73.686 
5.531 3.970 -65.841 
5.550 4.193 -66.109 
-4.903 0.135 -68.700 
-4.635 0.289 -68.951 
-6.666 3.164 -74.302 
-6.389 3.357 -74.377 
-13.442 10.677 -70.994 
-13.301 11.015 -71.306 
-7.607 10.808 -73.751 
-7.547 11.149 -73.901 
4.544 -4.911 -66.405 
4.695 -4.930 -66.933 
13.971 -2.895 -70.746 
14.032 -2.777 -70.948 
6.437 -1.083 -66.063 
6.677 -1.058 -66.346 
9.029 -6.207 -66.473 
9.297 -6.118 -66.923 
6.622 8.783 -62.753 
6.765 8.885 -62.709 
9.159 -11.994 -71.785 
9.288 -11.958 -71.918 
12.556 2.789 -67.732 
12.545 2.880 -67.786 
-4.384 -11.648 -67.851 
-4.289 -11.644 -67.907 
-14.728 8.066 -71.898 
-14.430 8.258 -72.246 
1.755 -5.321 -64.488 
1.771 -5.324 -64.842 
9.982 -11.288 -71.723 
10.059 -11.220 -71.831 
-12.121 11.944 -66.634 
-11.975 11.968 -66.877 
1.387 -1.769 -75.196 
1.506 -1.735 -75.458 
1.320 5.556 -67.439 
1.352 5.618 -67.704 
-2.656 4.030 -72.270 
-2.574 4.296 -72.564 
-4.326 -7.744 -63.808 
-4.044 -7.707 -64.140 
-12.997 7.954 -66.484 
-13.207 8.096 -66.628 
-3.376 -3.478 -65.942 
-3.204 -3.180 -66.442 
-2.832 11.319 -73.231 
-3.006 11.521 -73.237 
5.945 6.213 -62.625 
5.971 6.164 -62.799 
14.925 9.132 -71.881 
15.083 9.268 -72.254 
-5.080 0.909 -67.483 
-4.774 1.058 -67.713 
-11.756 -6.477 -71.934 
-11.686 -6.395 -72.021 
1.390 -6.725 -67.987 
1.407 -6.654 -68.338 
11.643 -0.992 -71.222 
11.845 -0.923 -71.448 
-13.970 -4.740 -71.739 
-13.703 -4.542 -71.967 
-8.667 10.410 -72.856 
-8.687 10.695 -73.078 
1.782 -11.249 -71.291 
1.994 -11.127 -71.318 
-2.471 1.475 -59.522 
-2.416 1.513 -59.631 
6.888 2.702 -67.887 
6.900 2.856 -68.290 
-5.546 12.355 -69.212 
-5.721 12.508 -69.204 
-10.115 -6.591 -63.588 
-9.955 -6.511 -63.794 
6.843 5.175 -62.461 
6.902 5.119 -62.633 
-9.621 7.820 -63.686 
-9.531 7.937 -63.758 
-9.113 9.366 -73.175 
-9.175 9.584 -73.497 
-15.742 1.659 -74.583 
-15.655 2.079 -74.573 
12.102 6.845 -69.635 
12.159 6.998 -69.736 
-8.494 -7.654 -70.335 
-8.204 -7.290 -70.356 
6.684 -2.931 -66.478 
6.955 -2.905 -66.953 
8.553 -1.186 -71.583 
8.828 -1.071 -72.123 
-0.449 11.385 -71.613 
-0.652 11.464 -71.650 
-13.448 1.398 -69.395 
-13.271 1.560 -69.420 
13.256 5.950 -67.987 
13.335 6.094 -68.079 
7.382 9.804 -69.520 
7.359 9.660 -69.596 
5.589 -11.851 -71.901 
5.791 -11.776 -71.889 
-4.977 -3.257 -68.097 
-4.775 -3.167 -68.494 
-9.708 10.824 -71.726 
-9.735 10.892 -71.914 
-14.119 -8.486 -74.891 
-14.035 -8.284 -74.908 
0.804 -11.375 -64.155 
0.840 -11.387 -63.914 
-10.862 0.518 -61.657 
-10.718 0.761 -61.744 
-8.825 -2.377 -69.724 
-8.645 -2.233 -69.758 
16.946 0.601 -67.424 
16.915 0.807 -67.446 
1.008 4.658 -73.628 
1.130 4.795 -73.959 
14.023 -7.926 -69.096 
14.144 -8.044 -69.213 
6.065 -8.614 -70.032 
6.275 -8.541 -70.197 
7.500 -1.427 -62.110 
7.771 -1.309 -62.414 
11.667 -5.084 -71.393 
11.769 -5.180 -71.928 
7.391 -11.849 -64.837 
7.612 -11.840 -64.719 
11.651 8.979 -69.363 
11.709 9.081 -69.514 
14.124 2.837 -64.656 
14.051 3.031 -64.615 
0.940 7.767 -75.488 
0.848 7.856 -75.648 
5.027 4.967 -65.591 
[...]
POINT_DATA 930 
SCALARS Umean double 1 
LOOKUP_TABLE default
0.19764 
0.19764 
0.26897 
0.26897 
0.11475 
0.11475 
0.12932 
0.12932 
0.27718 
0.27718 
0.16748 
0.16748 
0.13937 
0.13937 
0.24018 
0.24018 
0.17597 
0.17597 
0.17886 
0.17886 
0.12051 
0.12051 
0.17090 
0.17090 
0.23639 
0.23639 
0.18637 
0.18637 
0.05322 
0.05322 
0.16043 
0.16043 
0.16890 
0.16890 
0.00384 
0.00384 
0.15711 
0.15711 
0.21746 
0.21746 
0.18077 
0.18077 
0.27326 
0.27326 
0.20018 
0.20018 
0.14247 
0.14247 
0.25566 
0.25566 
0.23164 
0.23164 
0.14797 
0.14797 
0.24701 
0.24701 
0.16813 
0.16813 
0.12079 
0.12079 
0.10945 
0.10945 
0.18736 
0.18736 
0.20529 
0.20529 
0.10133 
0.10133 
0.25643 
0.25643 
0.14857 
0.14857 
0.14119 
0.14119 
0.04272 
0.04272 
0.13321 
0.13321 
0.18897 
0.18897 
0.17206 
0.17206 
0.16373 
0.16373 
0.18416 
0.18416 
0.20057 
0.20057 
0.24531 
0.24531 
0.21347 
0.21347 
0.21330 
0.21330 
0.13750 
0.13750 
0.16735 
0.16735 
0.14145 
0.14145 
0.17517 
0.17517 
0.21483 
0.21483 
0.16625 
0.16625 
0.16633 
0.16633 
0.16961 
0.16961 
0.12502 
0.12502 
0.13246 
0.13246 
0.09830 
0.09830 
0.13760 
0.13760 
0.23137 
0.23137 
0.23548 
0.23548 
0.11696 
0.11696 
0.07287 
0.07287 
0.25596 
0.25596 
0.12954 
0.12954 
0.17028 
0.17028 
0.19118 
0.19118 
0.11986 
0.11986 
0.08156 
0.08156 
0.33286 
0.33286 
0.11327 
0.11327 
0.10259 
0.10259 
0.24721 
0.24721 
0.16964 
0.16964 
0.19345 
0.19345 
0.24487 
0.24487 
0.21909 
0.21909 
0.11038 
0.11038 
0.26923 
0.26923 
0.11308 
0.11308 
0.16641 
0.16641 
0.10695 
0.10695 
0.08535 
0.08535 
0.11158 
0.11158 
0.14532 
0.14532 
0.19216 
0.19216 
0.18999 
0.18999 
0.31833 
0.31833 
0.16293 
0.16293 
0.11106 
0.11106 
0.26313 
0.26313 
0.25202 
0.25202 
0.07233 
0.07233 
0.10462 
0.10462 
0.18138 
0.18138 
0.11406 
0.11406 
0.13660 
0.13660 
0.09573 
0.09573 
0.21551 
0.21551 
0.26323 
0.26323 
0.20587 
0.20587 
0.16201 
0.16201 
0.16038 
0.16038 
0.08119 
0.08119 
0.10741 
0.10741 
0.18051 
0.18051 
0.12933 
0.12933 
0.08444 
0.08444 
0.12849 
0.12849 
0.10231 
0.10231 
0.12520 
0.12520 
0.37620 
0.37620 
0.23812 
0.23812 
0.21694 
0.21694 
0.18340 
0.18340 
0.15416 
0.15416 
0.26635 
0.26635 
0.07239 
0.07239 
0.05838 
0.05838 
0.23979 
0.23979 
0.12977 
0.12977 
0.16236 
0.16236 
0.20306 
0.20306 
0.19739 
0.19739 
0.19998 
0.19998 
0.19740 
0.19740 
0.09940 
0.09940 
0.15601 
0.15601 
0.13833 
0.13833 
0.10896 
0.10896 
0.17010 
0.17010 
0.17114 
0.17114 
0.10011 
0.10011 
0.09188 
0.09188 
0.23657 
0.23657 
0.10759 
0.10759 
0.20500 
0.20500 
0.05845 
0.05845 
0.16666 
0.16666 
0.10390 
0.10390 
0.13148 
0.13148 
0.11064 
0.11064 
0.15516 
0.15516 
0.10214 
0.10214 
0.14098 
0.14098 
0.18882 
0.18882 
0.06807 
0.06807 
0.15671 
0.15671 
0.11867 
0.11867 
0.14606 
0.14606 
0.10985 
0.10985 
0.15837 
0.15837 
0.19281 
0.19281 
0.07691 
0.07691 
0.23597 
0.23597 
0.17458 
0.17458 
0.19909 
0.19909 
0.17292 
0.17292 
0.24056 
0.24056 
0.18867 
0.18867 
0.27475 
0.27475 
0.12088 
0.12088 
0.18595 
0.18595 
0.26563 
0.26563 
0.09054 
0.09054 
0.09437 
0.09437 
0.05319 
0.05319 
0.05517 
0.05517 
0.24838 
0.24838 
0.17719 
0.17719 
0.07453 
0.07453 
0.14225 
0.14225 
0.14488 
0.14488 
0.13702 
0.13702 
0.20243 
0.20243 
0.21858 
0.21858 
0.14577 
0.14577 
0.30347 
0.30347 
0.13334 
0.13334 
0.09131 
0.09131 
0.21365 
0.21365 
0.20539 
0.20539 
0.06927 
0.06927 
0.17926 
0.17926 
0.15544 
0.15544 
0.20154 
0.20154 
0.18091 
0.18091 
0.12304 
0.12304 
0.06393 
0.06393 
0.21579 
0.21579 
0.11629 
0.11629 
0.13641 
0.13641 
0.09513 
0.09513 
0.08212 
0.08212 
0.19688 
0.19688 
0.21452 
0.21452 
0.09599 
0.09599 
0.23294 
0.23294 
0.27374 
0.27374 
0.30840 
0.30840 
0.11048 
0.11048 
0.12062 
0.12062 
0.09413 
0.09413 
0.08222 
0.08222 
0.10790 
0.10790 
0.22722 
0.22722 
0.10087 
0.10087 
0.10971 
0.10971 
0.12198 
0.12198 
0.14778 
0.14778 
0.11650 
0.11650 
0.10474 
0.10474 
0.18922 
0.18922 
0.10278 
0.10278 
0.13843 
0.13843 
0.21200 
0.21200 
0.27652 
0.27652 
0.12535 
0.12535 
0.09562 
0.09562 
0.10565 
0.10565 
0.10245 
0.10245 
0.17793 
0.17793 
0.15339 
0.15339 
0.26907 
0.26907 
0.17502 
0.17502 
0.16307 
0.16307 
0.19247 
0.19247 
0.18728 
0.18728 
0.18634 
0.18634 
0.08640 
0.08640 
0.12396 
0.12396 
0.12279 
0.12279 
0.09495 
0.09495 
0.15934 
0.15934 
0.17264 
0.17264 
0.18935 
0.18935 
0.08271 
0.08271 
0.02818 
0.02818 
0.18919 
0.18919 
0.14927 
0.14927 
0.08187 
0.08187 
0.25347 
0.25347 
0.06801 
0.06801 
0.10816 
0.10816 
0.16702 
0.16702 
0.10540 
0.10540 
0.12371 
0.12371 
0.04707 
0.04707 
0.29540 
0.29540 
0.09136 
0.09136 
0.28468 
0.28468 
0.08851 
0.08851 
0.04045 
0.04045 
0.17840 
0.17840 
0.12834 
0.12834 
0.22312 
0.22312 
0.14931 
0.14931 
0.18277 
0.18277 
0.04799 
0.04799 
0.15271 
0.15271 
0.14595 
0.14595 
0.14106 
0.14106 
0.13512 
0.13512 
0.14423 
0.14423 
0.07292 
0.07292 
0.13339 
0.13339 
0.25118 
0.25118 
0.06647 
0.06647 
0.19965 
0.19965 
0.15695 
0.15695 
0.08724 
0.08724 
0.18983 
0.18983 
0.17538 
0.17538 
0.12448 
0.12448 
0.26417 
0.26417 
0.22323 
0.22323 
0.03466 
0.03466 
0.08106 
0.08106 
0.08598 
0.08598 
0.14512 
0.14512 
0.14519 
0.14519 
0.18708 
0.18708 
0.19274 
0.19274 
0.13044 
0.13044 
0.10163 
0.10163 
0.16881 
0.16881 
0.11038 
0.11038 
0.17372 
0.17372 
0.06897 
0.06897 
0.07529 
0.07529 
0.12266 
0.12266 
0.23687 
0.23687 
0.13296 
0.13296 
0.18921 
0.18921 
0.20042 
0.20042 
0.19468 
0.19468 
0.25165 
0.25165 
0.08819 
0.08819 
0.07184 
0.07184 
0.22136 
0.22136 
0.10644 
0.10644 
0.15633 
0.15633 
0.21758 
0.21758 
0.19331 
0.19331 
0.12915 
0.12915 
0.14556 
0.14556 
0.11592 
0.11592 
0.08562 
0.08562 
0.13281 
0.13281 
0.27150 
0.27150 
0.37846 
0.37846 
0.11319 
0.11319 
0.07757 
0.07757 
0.12257 
0.12257 
0.12974 
0.12974 
0.15481 
0.15481 
0.20761 
0.20761 
0.15782 
0.15782 
0.13879 
0.13879 
0.09523 
0.09523 
0.07698 
0.07698 
0.22490 
0.22490 
0.11368 
0.11368 
0.11435 
0.11435 
0.12209 
0.12209 
0.20383 
0.20383 
0.06840 
0.06840 
0.22685 
0.22685 
0.20651 
0.20651 
0.08143 
0.08143 
0.11635 
0.11635 
0.32438 
0.32438 
0.09407 
0.09407 
0.06768 
0.06768 
0.15635 
0.15635 
0.20661 
0.20661 
0.08167 
0.08167 
0.15686 
0.15686 
0.13331 
0.13331 
0.17709 
0.17709 
0.14536 
0.14536 
0.09695 
0.09695 
0.17448 
0.17448 
0.20051 
0.20051 
0.21393 
0.21393 
0.15858 
0.15858 
0.03822 
0.03822 
0.12246 
0.12246 
0.13588 
0.13588 
0.06855 
0.06855 
0.10066 
0.10066 
0.30275 
0.30275 
0.22416 
0.22416 
0.16339 
0.16339 
0.24033 
0.24033 
0.13764 
0.13764 
0.11443 
0.11443 
0.30053 
0.30053 
0.25129 
0.25129 
0.12476 
0.12476 
0.11162 
0.11162 
0.03360 
0.03360 
0.05695 
0.05695 
0.12379 
0.12379 
0.23026 
0.23026 
0.21247 
0.21247 
0.08171 
0.08171 
0.19873 
0.19873 
0.25668 
0.25668 
0.10491 
0.10491 
0.17276 
0.17276 
0.19866 
0.19866 
0.08659 
0.08659 
0.20949 
0.20949 
0.16395 
0.16395 
0.18061 
0.18061 
0.14339 
0.14339 
0.23052 
0.23052 
0.07187 
0.07187 
0.10268 
0.10268 
0.18380 
0.18380 
0.18486 
0.18486 
0.22069 
0.22069 
0.17361 
0.17361 
0.22286 
0.22286 
0.15853 
0.15853 
0.20480 
0.20480 
0.11057 
0.11057 
0.13440 
0.13440 
0.19288 
0.19288 
0.14767 
0.14767 
0.11829 
0.11829 
0.13040 
0.13040 
0.16487 
0.16487 
0.07504 
0.07504 
0.15870 
0.15870 
0.13565 
0.13565 
0.21742 
0.21742 
0.24293 
0.24293 
0.14627 
0.14627 
0.22971 
0.22971 
0.08535 
0.08535 
0.10362 
0.10362 
0.21309 
0.21309 
0.18572 
0.18572 
0.07616 
0.07616 
0.21380 
0.21380 
0.18063 
0.18063 
0.08558 
0.08558 
0.07553 
0.07553 
0.18255 
0.18255 
0.11381 
0.11381 
0.27203 
0.27203 
0.05239 
0.05239 
0.20136 
0.20136 
0.16445 
0.16445 
0.12921 
0.12921 
0.11937 
0.11937 
0.12790 
0.12790 
0.20627 
0.20627 
0.12205 
0.12205 
0.11718 
0.11718 
0.15126 
0.15126 
0.17989 
0.17989 
0.15822 
0.15822 
0.12872 
0.12872 
0.06996 
0.06996 
0.20097 
0.20097 
0.05781 
0.05781 
0.11773 
0.11773 
0.14543 
0.14543 
0.05596 
0.05596 
0.17687 
0.17687 
0.13870 
0.13870 
0.12067 
0.12067 
0.25053 
0.25053 
0.08915 
0.08915 
0.07433 
0.07433 
0.16044 
0.16044 
0.18836 
0.18836 
0.08428 
0.08428 
0.17587 
0.17587 
0.22378 
0.22378 
0.11319 
0.11319 
0.15821 
0.15821 
0.12420 
0.12420 
0.12582 
0.12582 
0.21975 
0.21975 
0.24575 
0.24575 
0.25567 
0.25567 
0.08321 
0.08321 
0.16993 
0.16993 
0.20461 
0.20461 
0.28476 
0.28476 
0.24107 
0.24107 
0.18448 
0.18448 
0.20841 
0.20841 
0.12303 
0.12303 
0.16797 
0.16797 
0.15842 
0.15842 
0.20610 
0.20610 
0.13746 
0.13746 
0.08452 
0.08452 
0.15328 
0.15328 
0.11124 
0.11124 
SCALARS Umean_X double 1 
LOOKUP_TABLE default
0.05850 
0.05850 
-0.01600 
-0.01600 
-0.02950 
-0.02950 
0.00250 
0.00250 
0.05500 
0.05500 
0.06850 
0.06850 
0.01750 
0.01750 
0.08350 
0.08350 
0.07300 
0.07300 
0.06400 
0.06400 
0.09000 
0.09000 
0.04700 
0.04700 
0.14250 
0.14250 
0.07200 
0.07200 
0.00750 
0.00750 
0.04200 
0.04200 
0.02250 
0.02250 
-0.00150 
-0.00150 
0.02950 
0.02950 
-0.00250 
-0.00250 
0.00350 
0.00350 
0.10650 
0.10650 
0.17350 
0.17350 
-0.13100 
-0.13100 
0.09800 
0.09800 
0.03150 
0.03150 
0.07300 
0.07300 
0.06550 
0.06550 
0.11850 
0.11850 
0.03850 
0.03850 
0.02700 
0.02700 
0.07900 
0.07900 
0.14100 
0.14100 
0.02550 
0.02550 
0.03150 
0.03150 
0.09800 
0.09800 
0.04100 
0.04100 
-0.01200 
-0.01200 
0.09000 
0.09000 
0.02050 
0.02050 
0.02700 
0.02700 
0.06150 
0.06150 
0.12650 
0.12650 
-0.00650 
-0.00650 
0.14650 
0.14650 
0.07700 
0.07700 
0.02050 
0.02050 
0.03500 
0.03500 
0.05550 
0.05550 
0.09850 
0.09850 
0.09900 
0.09900 
0.04450 
0.04450 
0.04400 
0.04400 
-0.00050 
-0.00050 
0.15850 
0.15850 
0.03800 
0.03800 
0.08450 
0.08450 
0.07300 
0.07300 
0.02350 
0.02350 
0.05800 
0.05800 
0.07000 
0.07000 
-0.06850 
-0.06850 
0.04050 
0.04050 
0.13300 
0.13300 
0.02700 
0.02700 
0.05050 
0.05050 
0.07600 
0.07600 
-0.06700 
-0.06700 
0.05050 
0.05050 
0.11700 
0.11700 
0.08900 
0.08900 
0.06050 
0.06050 
0.15850 
0.15850 
-0.03700 
-0.03700 
0.10450 
0.10450 
0.10050 
0.10050 
0.07950 
0.07950 
0.01650 
0.01650 
0.15800 
0.15800 
0.09700 
0.09700 
0.03300 
0.03300 
-0.07400 
-0.07400 
0.06500 
0.06500 
0.09400 
0.09400 
0.07100 
0.07100 
0.04950 
0.04950 
0.00950 
0.00950 
0.14050 
0.14050 
0.10250 
0.10250 
-0.01800 
-0.01800 
0.13050 
0.13050 
0.12800 
0.12800 
-0.02250 
-0.02250 
-0.01300 
-0.01300 
0.04400 
0.04400 
0.01500 
0.01500 
0.09400 
0.09400 
0.04000 
0.04000 
0.08050 
0.08050 
0.14500 
0.14500 
0.10200 
0.10200 
0.10750 
0.10750 
0.09700 
0.09700 
-0.00600 
-0.00600 
0.08750 
0.08750 
0.08250 
0.08250 
0.11150 
0.11150 
-0.06450 
-0.06450 
-0.04300 
-0.04300 
0.01900 
0.01900 
0.04850 
0.04850 
0.09150 
0.09150 
0.16750 
0.16750 
0.07200 
0.07200 
0.13450 
0.13450 
-0.10000 
-0.10000 
0.10700 
0.10700 
-0.03200 
-0.03200 
0.04150 
0.04150 
0.16550 
0.16550 
0.07000 
0.07000 
0.07500 
0.07500 
-0.00650 
-0.00650 
0.05550 
0.05550 
0.02400 
0.02400 
0.09050 
0.09050 
0.05200 
0.05200 
0.04550 
0.04550 
0.02150 
0.02150 
-0.06300 
-0.06300 
0.16800 
0.16800 
0.03500 
0.03500 
-0.07700 
-0.07700 
-0.04400 
-0.04400 
0.07150 
0.07150 
0.10300 
0.10300 
0.15500 
0.15500 
-0.04650 
-0.04650 
0.02150 
0.02150 
0.08150 
0.08150 
0.05000 
0.05000 
-0.07150 
-0.07150 
0.01400 
0.01400 
-0.03100 
-0.03100 
0.03600 
0.03600 
0.12100 
0.12100 
0.06500 
0.06500 
0.13250 
0.13250 
0.07050 
0.07050 
-0.00350 
-0.00350 
0.02400 
0.02400 
0.00550 
0.00550 
0.07200 
0.07200 
-0.04300 
-0.04300 
0.03350 
0.03350 
0.00950 
0.00950 
0.13400 
0.13400 
0.13850 
0.13850 
0.07050 
0.07050 
0.03000 
0.03000 
0.07550 
0.07550 
0.03050 
0.03050 
0.12000 
0.12000 
0.13400 
0.13400 
0.07150 
0.07150 
0.06450 
0.06450 
-0.00550 
-0.00550 
0.04750 
0.04750 
0.14900 
0.14900 
0.00800 
0.00800 
0.03850 
0.03850 
0.07300 
0.07300 
0.05950 
0.05950 
0.01600 
0.01600 
0.04100 
0.04100 
0.14100 
0.14100 
-0.10500 
-0.10500 
0.08600 
0.08600 
-0.08700 
-0.08700 
0.01300 
0.01300 
0.07900 
0.07900 
0.15300 
0.15300 
0.03500 
0.03500 
0.00850 
0.00850 
0.10100 
0.10100 
0.13350 
0.13350 
-0.01000 
-0.01000 
0.10600 
0.10600 
0.02750 
0.02750 
0.00600 
0.00600 
-0.08750 
-0.08750 
0.08000 
0.08000 
0.02950 
0.02950 
0.04500 
0.04500 
-0.03100 
-0.03100 
0.04350 
0.04350 
0.02850 
0.02850 
0.14500 
0.14500 
0.13550 
0.13550 
0.13750 
0.13750 
-0.10150 
-0.10150 
0.08850 
0.08850 
0.03950 
0.03950 
-0.01150 
-0.01150 
0.10100 
0.10100 
0.10100 
0.10100 
-0.01350 
-0.01350 
0.04200 
0.04200 
0.01800 
0.01800 
0.07200 
0.07200 
0.09000 
0.09000 
-0.01550 
-0.01550 
0.06100 
0.06100 
0.06050 
0.06050 
0.10500 
0.10500 
0.13550 
0.13550 
0.05100 
0.05100 
0.11050 
0.11050 
0.02900 
0.02900 
-0.03650 
-0.03650 
-0.04600 
-0.04600 
0.06300 
0.06300 
0.10250 
0.10250 
0.06250 
0.06250 
0.08300 
0.08300 
0.04650 
0.04650 
0.08900 
0.08900 
-0.00000 
-0.00000 
0.08550 
0.08550 
0.08350 
0.08350 
0.05200 
0.05200 
0.08900 
0.08900 
0.04700 
0.04700 
0.12350 
0.12350 
0.05350 
0.05350 
0.15500 
0.15500 
0.03350 
0.03350 
0.02450 
0.02450 
0.09850 
0.09850 
0.06000 
0.06000 
0.02200 
0.02200 
0.11350 
0.11350 
-0.00200 
-0.00200 
-0.09600 
-0.09600 
0.08150 
0.08150 
0.09300 
0.09300 
-0.08750 
-0.08750 
0.00600 
0.00600 
0.11250 
0.11250 
0.08250 
0.08250 
0.07300 
0.07300 
0.03050 
0.03050 
-0.00800 
-0.00800 
0.04800 
0.04800 
0.11400 
0.11400 
0.06650 
0.06650 
-0.08100 
-0.08100 
0.13900 
0.13900 
-0.00750 
-0.00750 
-0.01700 
-0.01700 
0.02350 
0.02350 
0.03250 
0.03250 
0.07600 
0.07600 
0.00100 
0.00100 
-0.06300 
-0.06300 
-0.03300 
-0.03300 
0.13850 
0.13850 
-0.03450 
-0.03450 
0.04750 
0.04750 
0.02200 
0.02200 
0.08400 
0.08400 
0.09950 
0.09950 
0.11050 
0.11050 
0.06600 
0.06600 
0.08350 
0.08350 
0.20800 
0.20800 
0.00350 
0.00350 
0.06300 
0.06300 
-0.08000 
-0.08000 
-0.10350 
-0.10350 
0.12700 
0.12700 
0.07950 
0.07950 
0.04200 
0.04200 
-0.03150 
-0.03150 
0.07350 
0.07350 
0.13150 
0.13150 
0.08400 
0.08400 
0.13550 
0.13550 
0.02600 
0.02600 
-0.00650 
-0.00650 
-0.00200 
-0.00200 
-0.07250 
-0.07250 
-0.07100 
-0.07100 
0.14250 
0.14250 
0.13400 
0.13400 
0.05150 
0.05150 
0.08400 
0.08400 
0.03850 
0.03850 
0.04350 
0.04350 
0.18400 
0.18400 
0.06950 
0.06950 
0.08800 
0.08800 
0.17900 
0.17900 
0.12900 
0.12900 
0.05800 
0.05800 
0.13550 
0.13550 
-0.01950 
-0.01950 
0.00050 
0.00050 
0.03100 
0.03100 
-0.11350 
-0.11350 
0.12500 
0.12500 
0.07050 
0.07050 
-0.02250 
-0.02250 
0.05000 
0.05000 
0.07200 
0.07200 
0.07150 
0.07150 
0.01900 
0.01900 
0.01150 
0.01150 
-0.05350 
-0.05350 
-0.03100 
-0.03100 
-0.00300 
-0.00300 
-0.10600 
-0.10600 
0.01400 
0.01400 
0.01800 
0.01800 
0.03700 
0.03700 
0.07200 
0.07200 
-0.04600 
-0.04600 
0.14750 
0.14750 
0.04250 
0.04250 
0.06350 
0.06350 
0.05150 
0.05150 
0.18350 
0.18350 
-0.00300 
-0.00300 
-0.00450 
-0.00450 
-0.04700 
-0.04700 
0.07350 
0.07350 
0.03050 
0.03050 
0.05200 
0.05200 
0.09250 
0.09250 
0.10250 
0.10250 
0.08450 
0.08450 
0.06550 
0.06550 
0.07100 
0.07100 
-0.09600 
-0.09600 
0.10300 
0.10300 
-0.09250 
-0.09250 
0.00150 
0.00150 
0.04200 
0.04200 
-0.08150 
-0.08150 
-0.04750 
-0.04750 
0.05150 
0.05150 
0.16150 
0.16150 
-0.10150 
-0.10150 
0.10200 
0.10200 
0.07250 
0.07250 
0.12000 
0.12000 
0.01750 
0.01750 
0.11600 
0.11600 
0.06700 
0.06700 
-0.05950 
-0.05950 
-0.01050 
-0.01050 
-0.03000 
-0.03000 
0.05550 
0.05550 
0.01200 
0.01200 
0.07500 
0.07500 
0.06800 
0.06800 
0.01650 
0.01650 
-0.01900 
-0.01900 
-0.09650 
-0.09650 
0.09400 
0.09400 
0.07200 
0.07200 
0.04050 
0.04050 
0.03050 
0.03050 
0.08650 
0.08650 
-0.00000 
-0.00000 
0.14000 
0.14000 
0.04650 
0.04650 
0.12800 
0.12800 
0.06450 
0.06450 
0.07800 
0.07800 
0.06100 
0.06100 
0.14350 
0.14350 
0.10400 
0.10400 
0.13300 
0.13300 
0.07850 
0.07850 
-0.01250 
-0.01250 
0.08400 
0.08400 
0.10350 
0.10350 
0.01750 
0.01750 
0.08900 
0.08900 
0.09200 
0.09200 
0.05200 
0.05200 
0.11800 
0.11800 
0.11750 
0.11750 
0.05750 
0.05750 
0.06250 
0.06250 
-0.03900 
-0.03900 
0.06800 
0.06800 
0.14700 
0.14700 
0.03250 
0.03250 
0.09900 
0.09900 
0.05700 
0.05700 
0.07300 
0.07300 
0.21000 
0.21000 
-0.00650 
-0.00650 
0.01350 
0.01350 
0.04700 
0.04700 
-0.16000 
-0.16000 
0.03350 
0.03350 
0.01250 
0.01250 
0.12950 
0.12950 
0.06600 
0.06600 
0.13150 
0.13150 
0.04850 
0.04850 
0.10700 
0.10700 
0.03800 
0.03800 
0.08450 
0.08450 
0.06550 
0.06550 
0.03100 
0.03100 
0.02100 
0.02100 
-0.10450 
-0.10450 
-0.03000 
-0.03000 
0.05050 
0.05050 
0.00250 
0.00250 
0.07500 
0.07500 
-0.00000 
-0.00000 
-0.02000 
-0.02000 
0.02600 
0.02600 
0.03800 
0.03800 
0.06300 
0.06300 
0.13000 
0.13000 
0.02050 
0.02050 
0.01650 
0.01650 
0.09450 
0.09450 
0.01050 
0.01050 
0.12500 
0.12500 
0.00850 
0.00850 
0.05700 
0.05700 
0.09200 
0.09200 
0.10300 
0.10300 
-0.04400 
-0.04400 
0.05900 
0.05900 
0.08700 
0.08700 
0.09650 
0.09650 
0.02850 
0.02850 
0.00750 
0.00750 
-0.01350 
-0.01350 
-0.01000 
-0.01000 
0.10500 
0.10500 
0.10400 
0.10400 
-0.03350 
-0.03350 
0.08100 
0.08100 
0.15150 
0.15150 
0.04700 
0.04700 
0.12750 
0.12750 
0.18150 
0.18150 
0.07400 
0.07400 
0.07000 
0.07000 
0.07150 
0.07150 
0.12950 
0.12950 
0.18800 
0.18800 
0.08250 
0.08250 
-0.05350 
-0.05350 
0.08900 
0.08900 
0.02450 
0.02450 
SCALARS Umean_Y double 1 
LOOKUP_TABLE default
0.04000 
0.04000 
0.13600 
0.13600 
0.01750 
0.01750 
0.02150 
0.02150 
0.10150 
0.10150 
0.04000 
0.04000 
0.13250 
0.13250 
0.10350 
0.10350 
0.05600 
0.05600 
0.08200 
0.08200 
0.07900 
0.07900 
0.12250 
0.12250 
0.18200 
0.18200 
0.12500 
0.12500 
0.05200 
0.05200 
0.04550 
0.04550 
0.08450 
0.08450 
-0.00250 
-0.00250 
0.10400 
0.10400 
0.08650 
0.08650 
0.17900 
0.17900 
0.10650 
0.10650 
0.09750 
0.09750 
-0.05600 
-0.05600 
0.10700 
0.10700 
0.12100 
0.12100 
0.03450 
0.03450 
0.16100 
0.16100 
0.11850 
0.11850 
0.05750 
0.05750 
0.01500 
0.01500 
0.05850 
0.05850 
0.13850 
0.13850 
0.09650 
0.09650 
0.11100 
0.11100 
0.05950 
0.05950 
0.03850 
0.03850 
-0.02500 
-0.02500 
0.08650 
0.08650 
0.10900 
0.10900 
0.13400 
0.13400 
0.09900 
0.09900 
0.11700 
0.11700 
0.14150 
0.14150 
0.06700 
0.06700 
0.05950 
0.05950 
0.11650 
0.11650 
0.02550 
0.02550 
0.10200 
0.10200 
0.05550 
0.05550 
0.07900 
0.07900 
0.13450 
0.13450 
0.09850 
0.09850 
0.16600 
0.16600 
0.05450 
0.05450 
0.07050 
0.07050 
0.09850 
0.09850 
0.04100 
0.04100 
0.11550 
0.11550 
0.11450 
0.11450 
0.19350 
0.19350 
0.03650 
0.03650 
0.05700 
0.05700 
0.09900 
0.09900 
-0.00700 
-0.00700 
0.04050 
0.04050 
0.06850 
0.06850 
-0.08500 
-0.08500 
0.01950 
0.01950 
0.14750 
0.14750 
0.03700 
0.03700 
0.02650 
0.02650 
0.18300 
0.18300 
0.05100 
0.05100 
0.08050 
0.08050 
0.11400 
0.11400 
0.13050 
0.13050 
0.04700 
0.04700 
0.04400 
0.04400 
0.05750 
0.05750 
0.03850 
0.03850 
0.07050 
0.07050 
0.04800 
0.04800 
0.03100 
0.03100 
-0.02400 
-0.02400 
0.04750 
0.04750 
0.14900 
0.14900 
0.10150 
0.10150 
0.11700 
0.11700 
0.05100 
0.05100 
0.14750 
0.14750 
0.03350 
0.03350 
0.01300 
0.01300 
0.08400 
0.08400 
0.04150 
0.04150 
0.01550 
0.01550 
0.07850 
0.07850 
0.01300 
0.01300 
0.03400 
0.03400 
0.08400 
0.08400 
-0.05550 
-0.05550 
-0.09150 
-0.09150 
0.09350 
0.09350 
0.07150 
0.07150 
0.04600 
0.04600 
0.09950 
0.09950 
-0.05900 
-0.05900 
0.03000 
0.03000 
0.03300 
0.03300 
0.08750 
0.08750 
0.08900 
0.08900 
0.08650 
0.08650 
0.05800 
0.05800 
0.19550 
0.19550 
0.12050 
0.12050 
0.09700 
0.09700 
0.06350 
0.06350 
0.02600 
0.02600 
-0.03050 
-0.03050 
0.15550 
0.15550 
0.09100 
0.09100 
0.07150 
0.07150 
0.12550 
0.12550 
0.07250 
0.07250 
0.01450 
0.01450 
0.12050 
0.12050 
0.08400 
0.08400 
-0.10350 
-0.10350 
0.06350 
0.06350 
0.05000 
0.05000 
-0.01250 
-0.01250 
0.00250 
0.00250 
-0.03000 
-0.03000 
0.05500 
0.05500 
-0.00200 
-0.00200 
0.00600 
0.00600 
0.12050 
0.12050 
0.03350 
0.03350 
0.07150 
0.07150 
0.05650 
0.05650 
0.07400 
0.07400 
0.08400 
0.08400 
-0.00300 
-0.00300 
0.01600 
0.01600 
0.13250 
0.13250 
0.13150 
0.13150 
0.00300 
0.00300 
0.07350 
0.07350 
0.03450 
0.03450 
0.05800 
0.05800 
0.07300 
0.07300 
0.04050 
0.04050 
0.06000 
0.06000 
0.05800 
0.05800 
0.15300 
0.15300 
0.11150 
0.11150 
0.07700 
0.07700 
0.09650 
0.09650 
0.16900 
0.16900 
0.17050 
0.17050 