# vtk DataFile Version 2.1 
Trajects from timestep 132 with color option 
ASCII 
 
DATASET POLYDATA POINTS 1050 float 
10.360 4.880 -70.839 
10.538 5.132 -71.012 
-0.394 0.366 -74.170 
-0.238 0.577 -74.429 
-0.358 0.910 -70.066 
-0.312 1.182 -70.360 
-0.730 6.786 -71.124 
-0.715 6.947 -71.189 
-6.399 0.616 -73.800 
-6.395 0.907 -73.881 
-0.920 7.873 -69.472 
-0.864 8.214 -69.519 
0.298 6.683 -69.936 
0.356 6.840 -70.057 
1.245 10.974 -74.712 
1.211 11.155 -74.724 
0.383 10.264 -67.833 
0.372 10.444 -67.784 
-8.130 -4.744 -71.646 
-8.121 -4.701 -71.809 
7.591 11.025 -70.375 
7.535 10.878 -70.484 
-7.099 -3.442 -69.329 
-6.833 -3.272 -69.486 
-8.801 11.608 -67.024 
-8.874 11.892 -66.901 
-3.205 3.981 -67.494 
-3.208 4.148 -67.441 
-12.131 -3.443 -75.384 
-12.132 -3.227 -75.489 
4.583 7.374 -68.166 
4.578 7.442 -68.256 
5.582 1.841 -69.911 
5.911 2.179 -70.286 
1.702 12.308 -68.647 
1.693 12.411 -68.540 
-1.999 6.260 -69.588 
-1.906 6.528 -69.588 
-15.257 -7.030 -73.658 
-15.178 -6.856 -73.777 
0.960 -1.013 -68.354 
1.237 -0.596 -68.760 
-0.599 3.273 -70.558 
-0.445 3.505 -70.777 
1.257 -3.585 -70.690 
1.440 -3.433 -70.872 
-1.886 1.306 -65.894 
-1.901 1.385 -66.114 
5.173 4.969 -70.748 
5.321 5.178 -70.861 
6.006 10.677 -69.992 
5.938 10.761 -70.061 
-3.214 -2.316 -74.090 
-3.121 -2.118 -74.177 
-5.485 0.829 -67.571 
-5.454 1.152 -67.979 
9.305 -2.277 -71.427 
9.545 -2.193 -71.724 
1.574 10.491 -67.170 
1.536 10.647 -67.102 
-0.880 8.508 -65.975 
-0.898 8.785 -65.931 
-8.516 -2.116 -69.143 
-8.251 -1.893 -69.474 
-7.971 -11.913 -73.832 
-7.875 -11.664 -73.974 
0.946 -8.467 -71.692 
1.102 -8.404 -71.925 
0.719 10.676 -67.572 
0.700 10.818 -67.512 
4.614 8.626 -69.224 
4.667 8.854 -69.216 
10.566 6.449 -68.740 
10.627 6.595 -68.859 
-14.396 6.147 -74.584 
-14.432 6.295 -74.705 
0.506 -6.808 -70.099 
0.610 -6.744 -70.124 
-3.210 -8.221 -69.650 
-3.225 -8.210 -69.709 
-8.044 -4.624 -68.476 
-7.819 -4.394 -68.600 
-9.611 3.857 -75.074 
-9.565 4.055 -75.320 
-2.750 10.519 -66.836 
-2.631 10.776 -66.866 
-3.320 8.841 -67.534 
-3.331 9.049 -67.429 
3.406 3.259 -67.740 
3.635 3.400 -67.921 
-1.860 8.455 -73.707 
-1.784 8.764 -73.733 
2.329 2.539 -69.102 
2.517 2.949 -69.405 
-13.838 0.778 -68.950 
-13.794 1.026 -69.388 
-3.684 -5.368 -71.765 
-3.565 -5.407 -71.940 
-5.894 12.538 -67.712 
-5.872 12.614 -67.645 
-5.660 2.737 -76.463 
-5.513 2.842 -76.607 
3.270 8.363 -69.355 
3.282 8.557 -69.271 
7.735 6.505 -67.291 
7.650 6.651 -67.361 
-11.463 8.491 -76.180 
-11.443 8.619 -76.290 
-2.609 -3.098 -66.424 
-2.498 -2.979 -66.900 
10.282 3.018 -68.856 
10.357 3.421 -68.924 
10.644 6.679 -71.017 
10.780 6.780 -71.170 
-4.682 6.996 -63.659 
-4.752 7.229 -63.639 
-7.588 -1.071 -68.377 
-7.400 -0.899 -68.747 
-7.312 -5.811 -69.427 
-7.160 -5.615 -69.530 
9.491 0.541 -67.436 
9.604 0.794 -67.547 
-9.011 -7.076 -70.318 
-8.912 -6.908 -70.503 
0.377 -3.034 -65.900 
0.567 -2.868 -66.305 
1.537 11.974 -64.637 
1.514 12.122 -64.489 
3.906 4.474 -70.351 
4.100 4.738 -70.509 
-0.088 8.607 -71.083 
-0.058 8.856 -71.001 
-1.955 3.572 -66.562 
-1.869 3.774 -66.628 
-4.010 -10.610 -68.016 
-3.844 -10.483 -68.190 
-8.707 3.471 -67.232 
-8.778 3.637 -67.438 
3.520 6.853 -68.451 
3.516 6.978 -68.568 
2.496 -8.782 -70.464 
2.686 -8.716 -70.621 
9.377 8.122 -66.372 
9.467 8.248 -66.420 
-7.480 9.074 -68.977 
-7.417 9.309 -68.917 
-7.781 7.997 -64.049 
-7.801 8.144 -63.964 
-3.132 11.700 -66.343 
-3.082 11.807 -66.184 
-0.201 5.853 -65.963 
-0.227 6.144 -66.129 
1.475 8.169 -69.643 
1.427 8.348 -69.608 
-8.912 -8.192 -68.932 
-8.799 -8.022 -69.251 
-0.338 -7.594 -68.680 
-0.205 -7.657 -68.905 
-13.535 11.843 -71.604 
-13.543 12.041 -71.552 
-2.780 5.623 -63.880 
-2.807 5.752 -63.897 
-8.831 -6.222 -71.125 
-8.811 -6.139 -71.243 
-10.479 -1.298 -67.533 
-10.337 -0.872 -68.125 
-0.151 5.482 -67.443 
-0.143 5.608 -67.527 
-2.425 -9.357 -65.674 
-2.332 -9.248 -65.812 
6.069 12.193 -69.471 
5.938 12.164 -69.619 
4.455 0.319 -68.117 
4.630 0.424 -68.409 
-7.418 10.402 -64.233 
-7.465 10.689 -64.158 
-7.612 6.970 -64.106 
-7.650 7.115 -64.159 
-4.161 1.050 -67.763 
-4.134 1.203 -67.950 
11.604 -0.260 -68.116 
11.656 -0.113 -68.092 
-4.939 -11.485 -68.185 
-4.753 -11.316 -68.147 
-11.710 9.062 -70.472 
-11.784 9.308 -70.376 
8.007 -7.114 -73.336 
8.220 -6.921 -73.719 
8.336 -10.182 -67.814 
8.532 -10.195 -67.955 
6.751 -8.039 -70.453 
6.971 -7.959 -70.644 
-2.290 10.310 -63.897 
-2.349 10.526 -63.821 
-10.553 -9.215 -69.926 
-10.507 -9.168 -70.085 
-2.731 7.709 -64.263 
-2.782 7.904 -64.265 
-3.494 -3.411 -66.897 
-3.259 -3.394 -67.263 
-5.770 -5.568 -67.874 
-5.512 -5.414 -68.103 
4.672 -0.395 -68.857 
4.935 -0.118 -69.179 
7.675 9.886 -64.964 
7.705 9.989 -64.999 
-15.648 -3.904 -74.982 
-15.448 -3.853 -75.201 
12.348 -1.307 -65.568 
12.407 -1.109 -65.661 
13.000 -0.654 -71.993 
13.024 -0.595 -72.014 
1.078 -3.636 -59.637 
1.268 -3.441 -60.047 
-0.785 -3.244 -66.498 
-0.615 -3.125 -66.962 
8.601 -9.769 -71.854 
8.757 -9.730 -72.120 
-3.896 -6.779 -76.960 
-3.768 -6.521 -77.081 
-3.863 6.733 -72.766 
-3.716 6.950 -72.853 
0.994 11.679 -69.252 
0.994 11.865 -69.244 
-12.875 6.272 -68.573 
-12.754 6.625 -68.569 
0.149 5.771 -74.130 
0.270 5.908 -74.260 
-2.213 -3.352 -72.446 
-2.011 -3.146 -72.536 
-7.656 6.081 -76.610 
-7.624 6.209 -76.668 
17.482 6.567 -73.125 
17.650 6.573 -73.286 
-5.528 9.922 -72.194 
-5.479 10.093 -72.213 
-13.066 0.362 -73.328 
-13.047 0.624 -73.406 
-14.332 -7.783 -73.267 
-14.283 -7.696 -73.475 
-0.328 -5.947 -63.422 
-0.141 -5.708 -63.648 
4.927 -8.992 -67.697 
5.243 -8.990 -67.902 
-7.231 1.072 -64.728 
-7.224 1.199 -65.096 
1.222 -4.085 -66.427 
1.516 -3.831 -66.990 
17.240 4.566 -69.229 
17.433 4.681 -69.366 
10.811 -1.426 -71.728 
10.909 -1.315 -71.941 
-8.985 -1.134 -68.794 
-8.784 -0.849 -69.246 
-2.650 -8.277 -62.915 
-2.557 -8.135 -63.105 
4.980 -1.984 -70.951 
5.253 -1.751 -70.970 
16.564 4.176 -69.339 
16.803 4.203 -69.501 
-10.464 -6.447 -62.506 
-10.316 -6.145 -62.925 
11.714 5.018 -67.993 
11.842 5.213 -68.168 
-11.911 -6.536 -70.076 
-11.869 -6.356 -70.372 
-7.025 2.767 -61.929 
-6.890 2.883 -62.217 
0.730 -9.199 -65.486 
0.974 -9.219 -65.800 
-0.580 -2.482 -64.875 
-0.367 -2.248 -65.300 
6.131 -12.395 -68.144 
6.263 -12.382 -68.254 
-1.882 5.464 -71.085 
-1.724 5.748 -71.166 
-4.540 -1.345 -62.673 
-4.282 -1.166 -63.082 
5.081 3.489 -65.999 
5.175 3.562 -66.132 
-13.293 10.402 -72.692 
-13.257 10.523 -72.680 
4.641 5.757 -66.553 
4.695 5.936 -66.511 
-1.621 -4.464 -72.796 
-1.507 -4.176 -72.811 
4.012 -3.425 -68.542 
4.287 -3.368 -68.789 
1.821 -2.282 -64.950 
2.066 -2.160 -65.495 
3.077 -2.407 -67.925 
3.274 -2.336 -68.241 
5.686 -10.982 -70.063 
5.810 -10.866 -70.159 
9.098 6.499 -67.531 
9.047 6.707 -67.626 
5.498 -1.500 -65.633 
5.761 -1.429 -65.883 
-6.940 4.303 -65.919 
-6.902 4.412 -66.038 
-8.929 -5.925 -68.044 
-8.860 -5.748 -68.209 
-13.203 -5.632 -73.283 
-13.062 -5.516 -73.444 
-6.768 -8.103 -65.586 
-6.525 -7.789 -65.989 
-12.564 -2.852 -68.381 
-12.429 -2.726 -68.706 
-5.309 5.372 -64.122 
-5.264 5.499 -64.093 
-1.756 -8.815 -62.742 
-1.603 -8.728 -62.978 
14.608 1.160 -69.331 
14.658 1.226 -69.411 
-11.571 -8.479 -67.695 
-11.596 -8.404 -68.011 
0.099 -5.377 -69.188 
0.317 -5.356 -69.309 
-10.075 12.445 -69.621 
-10.041 12.756 -69.428 
-8.446 7.562 -62.464 
-8.464 7.770 -62.361 
7.914 -3.165 -65.745 
8.137 -2.991 -65.918 
-4.602 -9.027 -65.883 
-4.376 -8.975 -66.033 
16.652 3.595 -68.831 
16.707 3.701 -68.873 
4.688 11.501 -75.387 
4.699 11.497 -75.611 
-10.206 9.482 -67.179 
-10.183 9.725 -67.090 
-2.686 -0.675 -64.353 
-2.492 -0.487 -64.688 
3.407 6.864 -62.384 
3.454 7.062 -62.283 
1.294 5.951 -76.070 
1.334 6.180 -76.334 
-14.217 -0.171 -73.598 
-14.092 0.084 -73.678 
-2.073 -3.189 -63.874 
-1.838 -2.865 -64.430 
-4.817 -0.179 -70.547 
-4.596 0.123 -70.947 
6.340 -11.542 -70.567 
6.373 -11.493 -70.725 
15.050 -11.766 -70.217 
15.218 -11.628 -70.320 
-14.214 -0.720 -69.172 
-14.153 -0.556 -69.442 
-2.479 -4.072 -67.773 
-2.165 -4.091 -67.991 
12.367 -2.551 -67.706 
12.514 -2.325 -67.917 
-3.215 -0.105 -77.591 
-3.109 0.036 -77.727 
0.428 8.413 -63.852 
0.378 8.567 -63.862 
10.428 6.495 -64.264 
10.525 6.724 -64.326 
-12.300 -2.196 -67.779 
-12.129 -2.017 -68.101 
-6.219 10.052 -75.890 
-6.191 10.262 -75.929 
-3.573 3.181 -70.686 
-3.334 3.445 -70.892 
-2.398 -12.808 -65.639 
-2.298 -12.768 -65.764 
4.742 10.365 -71.394 
4.670 10.476 -71.447 
2.187 -0.864 -67.007 
2.323 -0.732 -67.297 
-11.724 6.774 -66.189 
-11.656 6.956 -66.175 
11.352 10.829 -72.110 
11.504 10.740 -72.286 
4.557 9.698 -73.646 
4.509 9.791 -73.785 
6.886 8.758 -74.098 
6.977 8.946 -74.339 
8.654 -2.633 -66.111 
8.699 -2.419 -66.267 
-1.233 -7.577 -69.890 
-1.076 -7.624 -70.140 
15.019 -3.562 -68.312 
15.180 -3.532 -68.355 
-13.984 11.964 -68.074 
-14.057 12.177 -67.967 
-6.262 -5.589 -69.381 
-6.093 -5.397 -69.560 
1.072 3.165 -63.681 
1.274 3.503 -63.677 
5.980 8.235 -63.683 
5.938 8.398 -63.692 
-1.668 -2.228 -68.367 
-1.559 -2.028 -68.880 
10.224 7.120 -67.862 
10.221 7.247 -68.010 
-1.422 -11.106 -72.858 
-1.273 -11.022 -72.841 
8.253 5.124 -75.220 
8.443 5.407 -75.600 
-4.390 8.395 -62.065 
-4.427 8.639 -61.948 
0.885 2.439 -66.070 
0.948 2.515 -66.300 
-12.567 1.575 -67.441 
-12.430 1.892 -67.927 
1.390 6.243 -61.904 
1.571 6.352 -62.135 
1.761 9.268 -72.579 
1.706 9.428 -72.620 
-8.941 -2.577 -68.167 
-8.809 -2.212 -68.497 
11.071 2.595 -73.365 
11.194 2.652 -73.506 
3.136 10.575 -65.188 
3.163 10.779 -65.090 
-10.750 5.197 -72.421 
-10.562 5.352 -72.518 
-3.673 -9.090 -64.480 
-3.503 -8.933 -64.648 
12.416 0.527 -67.928 
12.421 0.786 -67.894 
8.682 2.697 -62.554 
8.864 2.846 -62.624 
-11.079 -2.159 -70.676 
-10.911 -2.059 -70.728 
-9.783 -5.076 -67.684 
-9.712 -5.033 -67.845 
-15.606 -9.034 -73.099 
-15.497 -8.717 -73.154 
-13.267 -8.822 -68.483 
-13.304 -8.713 -68.704 
-14.808 10.303 -71.831 
-14.836 10.518 -71.865 
12.518 -2.708 -65.373 
12.571 -2.534 -65.472 
-11.258 2.959 -70.664 
-11.106 3.415 -70.865 
[...]
POINT_DATA 1050 
SCALARS Umean double 1 
LOOKUP_TABLE default
0.17686 
0.17686 
0.18435 
0.18435 
0.20158 
0.20158 
0.08714 
0.08714 
0.15104 
0.15104 
0.17437 
0.17437 
0.10326 
0.10326 
0.09228 
0.09228 
0.09344 
0.09344 
0.08441 
0.08441 
0.09569 
0.09569 
0.17628 
0.17628 
0.15899 
0.15899 
0.08762 
0.08762 
0.12009 
0.12009 
0.05646 
0.05646 
0.30129 
0.30129 
0.07440 
0.07440 
0.14184 
0.14184 
0.11256 
0.11256 
0.32228 
0.32228 
0.17713 
0.17713 
0.14976 
0.14976 
0.11712 
0.11712 
0.13996 
0.13996 
0.06411 
0.06411 
0.11771 
0.11771 
0.26065 
0.26065 
0.19549 
0.19549 
0.08718 
0.08718 
0.14052 
0.14052 
0.23954 
0.23954 
0.15115 
0.15115 
0.14370 
0.14370 
0.07766 
0.07766 
0.11711 
0.11711 
0.09899 
0.09899 
0.09726 
0.09726 
0.06232 
0.06232 
0.03093 
0.03093 
0.17241 
0.17241 
0.15956 
0.15956 
0.14240 
0.14240 
0.11663 
0.11663 
0.16208 
0.16208 
0.15963 
0.15963 
0.27169 
0.27169 
0.25263 
0.25263 
0.10760 
0.10760 
0.05184 
0.05184 
0.11551 
0.11551 
0.10587 
0.10587 
0.09143 
0.09143 
0.08498 
0.08498 
0.25152 
0.25152 
0.20776 
0.20776 
0.11413 
0.11413 
0.12205 
0.12205 
0.22463 
0.22463 
0.13428 
0.13428 
0.14925 
0.14925 
0.13440 
0.13440 
0.23858 
0.23858 
0.10528 
0.10528 
0.18186 
0.18186 
0.13193 
0.13193 
0.11463 
0.11463 
0.13598 
0.13598 
0.13696 
0.13696 
0.08563 
0.08563 
0.12758 
0.12758 
0.08106 
0.08106 
0.12529 
0.12529 
0.08549 
0.08549 
0.09903 
0.09903 
0.16801 
0.16801 
0.09430 
0.09430 
0.18936 
0.18936 
0.13443 
0.13443 
0.10244 
0.10244 
0.06644 
0.06644 
0.07282 
0.07282 
0.37152 
0.37152 
0.07582 
0.07582 
0.09947 
0.09947 
0.09988 
0.09988 
0.17812 
0.17812 
0.15017 
0.15017 
0.07950 
0.07950 
0.12156 
0.12156 
0.07888 
0.07888 
0.12708 
0.12708 
0.13712 
0.13712 
0.23943 
0.23943 
0.12090 
0.12090 
0.15106 
0.15106 
0.11823 
0.11823 
0.08603 
0.08603 
0.10078 
0.10078 
0.21764 
0.21764 
0.18889 
0.18889 
0.24979 
0.24979 
0.05642 
0.05642 
0.15047 
0.15047 
0.11329 
0.11329 
0.03353 
0.03353 
0.24608 
0.24608 
0.25414 
0.25414 
0.15541 
0.15541 
0.15620 
0.15620 
0.13808 
0.13808 
0.09309 
0.09309 
0.18659 
0.18659 
0.11215 
0.11215 
0.15111 
0.15111 
0.07206 
0.07206 
0.11638 
0.11638 
0.08945 
0.08945 
0.13701 
0.13701 
0.11536 
0.11536 
0.18919 
0.18919 
0.18834 
0.18834 
0.19468 
0.19468 
0.34202 
0.34202 
0.13157 
0.13157 
0.12971 
0.12971 
0.28545 
0.28545 
0.12739 
0.12739 
0.17971 
0.17971 
0.14499 
0.14499 
0.26864 
0.26864 
0.14580 
0.14580 
0.17448 
0.17448 
0.16928 
0.16928 
0.19908 
0.19908 
0.26493 
0.26493 
0.08616 
0.08616 
0.16747 
0.16747 
0.25782 
0.25782 
0.08924 
0.08924 
0.06341 
0.06341 
0.09581 
0.09581 
0.15505 
0.15505 
0.18700 
0.18700 
0.30493 
0.30493 
0.18954 
0.18954 
0.09753 
0.09753 
0.11714 
0.11714 
0.18487 
0.18487 
0.08289 
0.08289 
0.12581 
0.12581 
0.12171 
0.12171 
0.28287 
0.28287 
0.18690 
0.18690 
0.06891 
0.06891 
0.14720 
0.14720 
0.05757 
0.05757 
0.16287 
0.16287 
0.12511 
0.12511 
0.18380 
0.18380 
0.11640 
0.11640 
0.16578 
0.16578 
0.13809 
0.13809 
0.06329 
0.06329 
0.11215 
0.11215 
0.12990 
0.12990 
0.21518 
0.21518 
0.11359 
0.11359 
0.17588 
0.17588 
0.14752 
0.14752 
0.34254 
0.34254 
0.27388 
0.27388 
0.08434 
0.08434 
0.12029 
0.12029 
0.16087 
0.16087 
0.19136 
0.19136 
0.17118 
0.17118 
0.11137 
0.11137 
0.08111 
0.08111 
0.12815 
0.12815 
0.20308 
0.20308 
0.10771 
0.10771 
0.20570 
0.20570 
0.08250 
0.08250 
0.07126 
0.07126 
0.17322 
0.17322 
0.09740 
0.09740 
0.12450 
0.12450 
0.08700 
0.08700 
0.15946 
0.15946 
0.13431 
0.13431 
0.14946 
0.14946 
0.08466 
0.08466 
0.12465 
0.12465 
0.15610 
0.15610 
0.19689 
0.19689 
0.08428 
0.08428 
0.28065 
0.28065 
0.09752 
0.09752 
0.08594 
0.08594 
0.25524 
0.25524 
0.13656 
0.13656 
0.12514 
0.12514 
0.29810 
0.29810 
0.15653 
0.15653 
0.08704 
0.08704 
0.25473 
0.25473 
0.09780 
0.09780 
0.11396 
0.11396 
0.13113 
0.13113 
0.14298 
0.14298 
0.13063 
0.13063 
0.12270 
0.12270 
0.10115 
0.10115 
0.09057 
0.09057 
0.16985 
0.16985 
0.12459 
0.12459 
0.10973 
0.10973 
0.10354 
0.10354 
0.26050 
0.26050 
0.10533 
0.10533 
0.08195 
0.08195 
0.14310 
0.14310 
0.15927 
0.15927 
0.12880 
0.12880 
0.13449 
0.13449 
0.20569 
0.20569 
0.14282 
0.14282 
0.13724 
0.13724 
0.06026 
0.06026 
0.10604 
0.10604 
0.31060 
0.31060 
0.17658 
0.17658 
0.13210 
0.13210 
0.11700 
0.11700 
0.19535 
0.19535 
0.06709 
0.06709 
0.17189 
0.17189 
0.15258 
0.15258 
0.07736 
0.07736 
0.16652 
0.16652 
0.15412 
0.15412 
0.08932 
0.08932 
0.15782 
0.15782 
0.10142 
0.10142 
0.13076 
0.13076 
0.19744 
0.19744 
0.10317 
0.10317 
0.08984 
0.08984 
0.10422 
0.10422 
0.22206 
0.22206 
0.24555 
0.24555 
0.09892 
0.09892 
0.29033 
0.29033 
0.10307 
0.10307 
0.12500 
0.12500 
0.11243 
0.11243 
0.17318 
0.17318 
0.19578 
0.19578 
0.17000 
0.17000 
0.08402 
0.08402 
0.10673 
0.10673 
0.17181 
0.17181 
0.06010 
0.06010 
0.10696 
0.10696 
0.17138 
0.17138 
0.15896 
0.15896 
0.11494 
0.11494 
0.13737 
0.13737 
0.19026 
0.19026 
0.22530 
0.22530 
0.14285 
0.14285 
0.18539 
0.18539 
0.24083 
0.24083 
0.13045 
0.13045 
0.12529 
0.12529 
0.10259 
0.10259 
0.17615 
0.17615 
0.17071 
0.17071 
0.17793 
0.17793 
0.09682 
0.09682 
0.14858 
0.14858 
0.20521 
0.20521 
0.15255 
0.15255 
0.08187 
0.08187 
0.11018 
0.11018 
0.13567 
0.13567 
0.14252 
0.14252 
0.06729 
0.06729 
0.04700 
0.04700 
0.21634 
0.21634 
0.04064 
0.04064 
0.13742 
0.13742 
0.26287 
0.26287 
0.13146 
0.13146 
0.15339 
0.15339 
0.15524 
0.15524 
0.08737 
0.08737 
0.08373 
0.08373 
0.12492 
0.12492 
0.15660 
0.15660 
0.21654 
0.21654 
0.15752 
0.15752 
0.22599 
0.22599 
0.11702 
0.11702 
0.06679 
0.06679 
0.18759 
0.18759 
0.07741 
0.07741 
0.13138 
0.13138 
0.04051 
0.04051 
0.12121 
0.12121 
0.09879 
0.09879 
0.09146 
0.09146 
0.13255 
0.13255 
0.23568 
0.23568 
0.05538 
0.05538 
0.12042 
0.12042 
0.14907 
0.14907 
0.18241 
0.18241 
0.15061 
0.15061 
0.07445 
0.07445 
0.17263 
0.17263 
0.06715 
0.06715 
0.22816 
0.22816 
0.21723 
0.21723 
0.09688 
0.09688 
0.17839 
0.17839 
0.29813 
0.29813 
0.13873 
0.13873 
0.09695 
0.09695 
0.11026 
0.11026 
0.13132 
0.13132 
0.13455 
0.13455 
0.11340 
0.11340 
0.13978 
0.13978 
0.13940 
0.13940 
0.11372 
0.11372 
0.14298 
0.14298 
0.18678 
0.18678 
0.20769 
0.20769 
0.13474 
0.13474 
0.11413 
0.11413 
0.12472 
0.12472 
0.10846 
0.10846 
0.10843 
0.10843 
0.14675 
0.14675 
0.12546 
0.12546 
0.09992 
0.09992 
0.10542 
0.10542 
0.11480 
0.11480 
0.15602 
0.15602 
0.16481 
0.16481 
0.10234 
0.10234 
0.23511 
0.23511 
0.14096 
0.14096 
0.10783 
0.10783 
0.05025 
0.05025 
0.10908 
0.10908 
0.15173 
0.15173 
0.16910 
0.16910 
0.09776 
0.09776 
0.17506 
0.17506 
0.08962 
0.08962 
0.17076 
0.17076 
0.16042 
0.16042 
0.08410 
0.08410 
0.18894 
0.18894 
0.12832 
0.12832 
0.08998 
0.08998 
0.15103 
0.15103 
0.12708 
0.12708 
0.13072 
0.13072 
0.13917 
0.13917 
0.23222 
0.23222 
0.17598 
0.17598 
0.30322 
0.30322 
0.30466 
0.30466 
0.08946 
0.08946 
0.22122 
0.22122 
0.24193 
0.24193 
0.17273 
0.17273 
0.21841 
0.21841 
0.13979 
0.13979 
0.21524 
0.21524 
0.06800 
0.06800 
0.20060 
0.20060 
0.15411 
0.15411 
0.08105 
0.08105 
0.08987 
0.08987 
0.10361 
0.10361 
0.12828 
0.12828 
0.24377 
0.24377 
0.09994 
0.09994 
0.09517 
0.09517 
0.14618 
0.14618 
0.09812 
0.09812 
0.24049 
0.24049 
0.11265 
0.11265 
0.14784 
0.14784 
0.22336 
0.22336 
0.07232 
0.07232 
0.18864 
0.18864 
0.11791 
0.11791 
0.06680 
0.06680 
0.14036 
0.14036 
0.10163 
0.10163 
0.19061 
0.19061 
0.06544 
0.06544 
0.21463 
0.21463 
0.12144 
0.12144 
0.08714 
0.08714 
0.12327 
0.12327 
0.10241 
0.10241 
0.16530 
0.16530 
0.17626 
0.17626 
0.13938 
0.13938 
0.35889 
0.35889 
0.13170 
0.13170 
0.26044 
0.26044 
0.08581 
0.08581 
0.10416 
0.10416 
0.15406 
0.15406 
0.20039 
0.20039 
0.09431 
0.09431 
0.10229 
0.10229 
0.15925 
0.15925 
0.18255 
0.18255 
0.12700 
0.12700 
0.09435 
0.09435 
0.10694 
0.10694 
0.11560 
0.11560 
0.10887 
0.10887 
0.18361 
0.18361 
0.07926 
0.07926 
0.17424 
0.17424 
0.06951 
0.06951 
0.12293 
0.12293 
0.19295 
0.19295 
0.05742 
0.05742 
0.15859 
0.15859 
0.12716 
0.12716 
0.12503 
0.12503 
0.13464 
0.13464 
0.11986 
0.11986 
0.10777 
0.10777 
0.06291 
0.06291 
0.10362 
0.10362 
0.08883 
0.08883 
0.07247 
0.07247 
0.30016 
0.30016 
0.19384 
0.19384 
0.10050 
0.10050 
0.10100 
0.10100 
0.18480 
0.18480 
0.18070 
0.18070 
0.18768 
0.18768 
0.12288 
0.12288 
0.15266 
0.15266 
0.30520 
0.30520 
0.21998 
0.21998 
0.14224 
0.14224 
0.30096 
0.30096 
0.08406 
0.08406 
0.13158 
0.13158 
0.12798 
0.12798 
0.08491 
0.08491 
0.04123 
0.04123 
0.12951 
0.12951 
0.12007 
0.12007 
0.16656 
0.16656 
0.30254 
0.30254 
0.21840 
0.21840 
0.17102 
0.17102 
0.12928 
0.12928 
0.24242 
0.24242 
0.16328 
0.16328 
0.22899 
0.22899 
0.09019 
0.09019 
0.21846 
0.21846 
0.16641 
0.16641 
0.15085 
0.15085 
0.17232 
0.17232 
0.13255 
0.13255 
0.11497 
0.11497 
0.13384 
0.13384 
0.07116 
0.07116 
0.11136 
0.11136 
0.21872 
0.21872 
0.16610 
0.16610 
0.03960 
0.03960 
0.10035 
0.10035 
0.13532 
0.13532 
0.16340 
0.16340 
0.11769 
0.11769 
0.13772 
0.13772 
0.18443 
0.18443 
0.14125 
0.14125 
0.13587 
0.13587 
0.16604 
0.16604 
0.08677 
0.08677 
0.10482 
0.10482 
0.16842 
0.16842 
0.06222 
0.06222 
0.08480 
0.08480 
0.06711 
0.06711 
0.13563 
0.13563 
0.09233 
0.09233 
0.09615 
0.09615 
0.17560 
0.17560 
0.13326 
0.13326 
0.16536 
0.16536 
0.12250 
0.12250 
0.12531 
0.12531 
0.08211 
0.08211 
0.10548 
0.10548 
0.16333 
0.16333 
0.11972 
0.11972 
0.15116 
0.15116 
0.09689 
0.09689 
0.16834 
0.16834 
0.22828 
0.22828 
0.11359 
0.11359 
0.15690 
0.15690 
0.13135 
0.13135 
0.19770 
0.19770 
SCALARS Umean_X double 1 
LOOKUP_TABLE default
0.08900 
0.08900 
0.07800 
0.07800 
0.02300 
0.02300 
0.00750 
0.00750 
0.00200 
0.00200 
0.02800 
0.02800 
0.02900 
0.02900 
-0.01700 
-0.01700 
-0.00550 
-0.00550 
0.00450 
0.00450 
-0.02800 
-0.02800 
0.13300 
0.13300 
-0.03650 
-0.03650 
-0.00150 
-0.00150 
-0.00050 
-0.00050 
-0.00250 
-0.00250 
0.16450 
0.16450 
-0.00450 
-0.00450 
0.04650 
0.04650 
0.03950 
0.03950 
0.13850 
0.13850 
0.07700 
0.07700 
0.09150 
0.09150 
-0.00750 
-0.00750 
0.07400 
0.07400 
-0.03400 
-0.03400 
0.04650 
0.04650 
0.01550 
0.01550 
0.12000 
0.12000 
-0.01900 
-0.01900 
-0.00900 
-0.00900 
0.13250 
0.13250 
0.04800 
0.04800 
0.07800 
0.07800 
-0.00950 
-0.00950 
0.02650 
0.02650 
0.03050 
0.03050 
-0.01800 
-0.01800 
0.05200 
0.05200 
-0.00750 
-0.00750 
0.11250 
0.11250 
0.02300 
0.02300 
0.05950 
0.05950 
-0.00550 
-0.00550 
0.11450 
0.11450 
0.03800 
0.03800 
0.09400 
0.09400 
0.02200 
0.02200 
0.05950 
0.05950 
0.01100 
0.01100 
0.07350 
0.07350 
0.00600 
0.00600 
-0.04250 
-0.04250 
0.01000 
0.01000 
0.05550 
0.05550 
0.03750 
0.03750 
0.06800 
0.06800 
-0.03500 
-0.03500 
0.09400 
0.09400 
0.07600 
0.07600 
0.05650 
0.05650 
0.04950 
0.04950 
0.09500 
0.09500 
-0.01150 
-0.01150 
0.09700 
0.09700 
0.01500 
0.01500 
0.04300 
0.04300 
0.08300 
0.08300 
-0.03550 
-0.03550 
-0.00200 
-0.00200 
0.09500 
0.09500 
0.04500 
0.04500 
0.03150 
0.03150 
-0.01000 
-0.01000 
0.02500 
0.02500 
-0.01300 
-0.01300 
-0.02400 
-0.02400 
0.05650 
0.05650 
0.06650 
0.06650 
-0.00400 
-0.00400 
-0.01350 
-0.01350 
0.01000 
0.01000 
0.07100 
0.07100 
0.00400 
0.00400 
0.04650 
0.04650 
-0.06550 
-0.06550 
0.08750 
0.08750 
-0.02350 
-0.02350 
-0.01900 
-0.01900 
0.01350 
0.01350 
0.02600 
0.02600 
0.09300 
0.09300 
-0.03700 
-0.03700 
0.10650 
0.10650 
0.09800 
0.09800 
0.11000 
0.11000 
-0.02950 
-0.02950 
0.02300 
0.02300 
-0.02550 
-0.02550 
0.11750 
0.11750 
0.12900 
0.12900 
0.13150 
0.13150 
0.01500 
0.01500 
0.10000 
0.10000 
0.02950 
0.02950 
0.01200 
0.01200 
0.09500 
0.09500 
0.08500 
0.08500 
0.07800 
0.07800 
0.06400 
0.06400 
0.07350 
0.07350 
-0.00000 
-0.00000 
0.06050 
0.06050 
0.06050 
0.06050 
0.10100 
0.10100 
0.01600 
0.01600 
0.08400 
0.08400 
0.02450 
0.02450 
0.00950 
0.00950 
0.02450 
0.02450 
0.09350 
0.09350 
0.15800 
0.15800 
0.00350 
0.00350 
0.14700 
0.14700 
0.09650 
0.09650 
0.04900 
0.04900 
0.10050 
0.10050 
0.04650 
0.04650 
0.13650 
0.13650 
0.11950 
0.11950 
0.07400 
0.07400 
0.06400 
0.06400 
0.02100 
0.02100 
0.06750 
0.06750 
0.12200 
0.12200 
0.10650 
0.10650 
0.06600 
0.06600 
0.07900 
0.07900 
0.12900 
0.12900 
0.04700 
0.04700 
0.01800 
0.01800 
0.02700 
0.02700 
0.05700 
0.05700 
0.13750 
0.13750 
0.12250 
0.12250 
0.09850 
0.09850 
0.06200 
0.06200 
-0.02550 
-0.02550 
0.13150 
0.13150 
0.01900 
0.01900 
0.03450 
0.03450 
0.07050 
0.07050 
0.12150 
0.12150 
0.06750 
0.06750 
0.02250 
0.02250 
0.07650 
0.07650 
0.02500 
0.02500 
-0.01250 
-0.01250 
0.10900 
0.10900 
0.01700 
0.01700 
-0.00900 
-0.00900 
0.11150 
0.11150 
0.11300 
0.11300 
0.02750 
0.02750 
0.00550 
0.00550 
0.01150 
0.01150 
0.09700 
0.09700 
0.02350 
0.02350 
0.02000 
0.02000 
0.06250 
0.06250 
0.11750 
0.11750 
0.11050 
0.11050 
0.01650 
0.01650 
0.08400 
0.08400 
0.03050 
0.03050 
0.15700 
0.15700 
0.07350 
0.07350 
0.05300 
0.05300 
-0.02500 
-0.02500 
0.04850 
0.04850 
0.08550 
0.08550 
0.01400 
0.01400 
0.11950 
0.11950 
0.05000 
0.05000 
-0.03600 
-0.03600 
0.06800 
0.06800 
0.03400 
0.03400 
0.07600 
0.07600 
-0.02400 
-0.02400 
0.04550 
0.04550 
0.02250 
0.02250 
0.07850 
0.07850 
0.08050 
0.08050 
-0.03650 
-0.03650 
0.08450 
0.08450 
0.10100 
0.10100 
-0.02100 
-0.02100 
0.05450 
0.05450 
-0.00150 
-0.00150 
0.07450 
0.07450 
0.09500 
0.09500 
-0.01850 
-0.01850 
0.03150 
0.03150 
0.06850 
0.06850 
0.09050 
0.09050 
-0.02750 
-0.02750 
0.06600 
0.06600 
0.06150 
0.06150 
0.01350 
0.01350 
0.09400 
0.09400 
0.08500 
0.08500 
0.00250 
0.00250 
0.09100 
0.09100 
0.08400 
0.08400 
0.03550 
0.03550 
0.05450 
0.05450 
-0.01850 
-0.01850 
-0.01400 
-0.01400 
0.02650 
0.02650 
0.07600 
0.07600 
0.07850 
0.07850 
0.07800 
0.07800 
0.08900 
0.08900 
-0.02550 
-0.02550 
0.06700 
0.06700 
0.09300 
0.09300 
0.02700 
0.02700 
0.02750 
0.02750 
0.00400 
0.00400 
0.01150 
0.01150 
-0.03000 
-0.03000 
0.01300 
0.01300 
0.00150 
0.00150 
0.04700 
0.04700 
0.10050 
0.10050 
0.08900 
0.08900 
0.01150 
0.01150 
0.04850 
0.04850 
0.03200 
0.03200 
-0.00150 
-0.00150 
0.10250 
0.10250 
0.00600 
0.00600 
0.03300 
0.03300 
0.09750 
0.09750 
-0.00600 
-0.00600 
0.07650 
0.07650 
0.14500 
0.14500 
0.05250 
0.05250 
0.07950 
0.07950 
-0.00100 
-0.00100 
0.07200 
0.07200 
0.14850 
0.14850 
0.06800 
0.06800 
0.17150 
0.17150 
-0.05650 
-0.05650 
0.11100 
0.11100 
-0.01250 
-0.01250 
0.12800 
0.12800 
0.00050 
0.00050 
0.11900 
0.11900 
-0.03300 
-0.03300 
0.03500 
0.03500 
0.05750 
0.05750 
0.04450 
0.04450 
0.03850 
0.03850 
0.04100 
0.04100 
-0.05850 
-0.05850 
0.04800 
0.04800 
0.04800 
0.04800 
0.15500 
0.15500 
0.06000 
0.06000 
0.04950 
0.04950 
0.07400 
0.07400 
0.14550 
0.14550 
0.12450 
0.12450 
0.10250 
0.10250 
0.06300 
0.06300 
-0.05200 
-0.05200 
0.01850 
0.01850 
-0.10300 
-0.10300 
0.09250 
0.09250 
-0.03300 
-0.03300 
0.11850 
0.11850 
0.03400 
0.03400 
0.03400 
0.03400 
0.00550 
0.00550 
0.04000 
0.04000 
0.03700 
0.03700 
0.05150 
0.05150 
0.00250 
0.00250 
0.11400 
0.11400 
0.00150 
0.00150 
0.07900 
0.07900 
0.07700 
0.07700 
0.12050 
0.12050 
0.11250 
0.11250 
0.10100 
0.10100 
0.03550 
0.03550 
0.04500 
0.04500 
0.08450 
0.08450 
0.04250 
0.04250 
0.06800 
0.06800 
0.09100 
0.09100 
0.07100 
0.07100 
0.03350 
0.03350 
-0.00950 
-0.00950 
-0.00400 
-0.00400 
0.07450 
0.07450 
0.06750 
0.06750 
-0.01600 
-0.01600 
-0.01800 
-0.01800 
-0.02550 
-0.02550 
-0.00350 
-0.00350 
0.08200 
0.08200 
0.05950 
0.05950 
0.00150 
0.00150 
0.08450 
0.08450 
0.05600 
0.05600 
0.03600 
0.03600 
-0.00400 
-0.00400 
0.03350 
0.03350 
0.10250 
0.10250 
-0.02050 
-0.02050 
0.08600 
0.08600 
0.01300 
0.01300 
-0.01600 
-0.01600 
0.09650 
0.09650 
0.06250 
0.06250 
0.10000 
0.10000 
0.02400 
0.02400 
-0.01200 
-0.01200 
0.03200 
0.03200 
0.07700 
0.07700 
-0.03350 
-0.03350 
-0.02100 
-0.02100 
0.08000 
0.08000 
0.00550 
0.00550 
0.05150 
0.05150 
0.00400 
0.00400 
0.17400 
0.17400 
0.10600 
0.10600 
-0.02000 
-0.02000 
-0.00150 
-0.00150 
0.06000 
0.06000 
0.02550 
0.02550 
0.00700 
0.00700 
0.06600 
0.06600 
0.02150 
0.02150 
0.06250 
0.06250 
-0.01750 
-0.01750 
0.11900 
0.11900 
0.06700 
0.06700 
0.06050 
0.06050 
0.06800 
0.06800 
0.03150 
0.03150 
-0.05400 
-0.05400 
-0.01300 
-0.01300 
0.02400 
0.02400 
0.03000 
0.03000 
0.05900 
0.05900 
-0.00200 
-0.00200 
0.09800 
0.09800 
0.03300 
0.03300 
-0.00600 
-0.00600 
0.11250 
0.11250 
-0.01600 
-0.01600 
0.06300 
0.06300 
0.05150 
0.05150 
0.05400 
0.05400 
0.05150 
0.05150 
0.00050 
0.00050 
0.07550 
0.07550 
0.02450 
0.02450 
0.06950 
0.06950 
0.06150 
0.06150 
0.12100 
0.12100 
0.06950 
0.06950 
0.04100 
0.04100 
0.06300 
0.06300 
0.15050 
0.15050 
0.13750 
0.13750 
0.14250 
0.14250 
0.10500 
0.10500 
0.01800 
0.01800 
0.04300 
0.04300 
0.09800 
0.09800 
0.11550 
0.11550 
0.01600 
0.01600 
-0.01450 
-0.01450 
0.08150 
0.08150 
0.01050 
0.01050 
0.07300 
0.07300 
-0.01000 
-0.01000 
0.01800 
0.01800 
0.05850 
0.05850 
0.05500 
0.05500 
0.17150 
0.17150 
0.06800 
0.06800 
-0.02500 
-0.02500 
0.03650 
0.03650 
0.04850 
0.04850 
-0.02400 
-0.02400 
0.06000 
0.06000 
-0.00300 
-0.00300 
0.08750 
0.08750 
-0.05800 
-0.05800 
0.06200 
0.06200 
-0.01150 
-0.01150 
0.12400 
0.12400 
-0.08000 
-0.08000 
-0.02200 
-0.02200 
-0.01750 
-0.01750 
0.08650 
0.08650 
-0.00350 
-0.00350 
0.06200 
0.06200 
0.13200 
0.13200 
0.09050 
0.09050 
0.06000 
0.06000 
0.11700 
0.11700 
-0.01450 
-0.01450 
0.00850 
0.00850 
0.10750 
0.10750 
0.10900 
0.10900 
0.08400 
0.08400 
0.05450 
0.05450 
0.10900 
0.10900 
0.05950 
0.05950 
0.08100 
0.08100 
0.00450 
0.00450 
0.04200 
0.04200 
0.03050 
0.03050 
0.05900 
0.05900 
0.17300 
0.17300 
0.06100 
0.06100 
0.11550 
0.11550 
-0.01300 
-0.01300 
-0.00900 
-0.00900 
0.04600 
0.04600 
-0.04000 
-0.04000 
0.02350 
0.02350 
0.09050 
0.09050 
0.06950 
0.06950 
0.09800 
0.09800 
0.07800 
0.07800 
0.07350 
0.07350 
0.05650 
0.05650 
0.06700 
0.06700 
0.02750 
0.02750 
0.06100 
0.06100 
0.21900 
0.21900 
0.06550 
0.06550 
0.06800 
0.06800 
0.07000 
0.07000 
0.01150 
0.01150 
0.09400 
0.09400 
0.16300 
0.16300 
0.02100 
0.02100 
-0.05350 
-0.05350 
0.09350 
0.09350 
0.08500 
0.08500 
0.04100 
0.04100 
0.08300 
0.08300 
-0.00550 
-0.00550 
0.03900 
0.03900 
0.02500 
0.02500 
0.06450 
0.06450 
0.00050 
0.00050 
0.06000 
0.06000 
-0.07700 
-0.07700 
0.05900 
0.05900 
0.17150 
0.17150 
0.12950 
0.12950 
0.03350 
0.03350 
0.00750 
0.00750 
0.10900 
0.10900 
0.05450 
0.05450 
0.12050 
0.12050 
-0.00500 
-0.00500 
0.12250 
0.12250 
0.00350 
0.00350 
-0.10450 
-0.10450 
0.11700 
0.11700 
0.08450 
0.08450 
0.08900 
0.08900 
0.10200 
0.10200 
-0.03900 
-0.03900 
0.05300 
0.05300 
0.01800 
0.01800 
0.13400 
0.13400 
-0.01300 
-0.01300 
0.08600 
0.08600 
0.03750 
0.03750 
0.08750 
0.08750 
0.00900 
0.00900 
0.04650 
0.04650 
-0.00100 
-0.00100 
-0.00700 
-0.00700 
-0.03150 
-0.03150 
0.04500 
0.04500 
-0.00100 
-0.00100 
0.00250 
0.00250 
0.13000 
0.13000 
0.04400 
0.04400 
0.03700 
0.03700 
0.05450 
0.05450 
0.07800 
0.07800 
0.03050 
0.03050 
-0.02400 
-0.02400 
0.09200 
0.09200 
-0.06650 
-0.06650 
0.07050 
0.07050 
0.09000 
0.09000 
0.04650 
0.04650 
0.05900 
0.05900 
0.03300 
0.03300 
0.09450 
0.09450 
-0.00600 
-0.00600 
0.02100 
0.02100 
0.08500 
0.08500 
0.12700 
0.12700 
0.14900 
0.14900 
-0.04050 
-0.04050 
0.03500 
0.03500 
0.03300 
0.03300 
0.17000 
0.17000 
SCALARS Umean_Y double 1 
LOOKUP_TABLE default
0.12600 
0.12600 
0.10550 
0.10550 
0.13600 
0.13600 
0.08050 
0.08050 
0.14550 
0.14550 
0.17050 
0.17050 
0.07850 
0.07850 
0.09050 
0.09050 
0.09000 
0.09000 
0.02150 
0.02150 
-0.07350 
-0.07350 
0.08500 
0.08500 
0.14200 
0.14200 
0.08350 
0.08350 
0.10800 
0.10800 
0.03400 
0.03400 
0.16900 
0.16900 
0.05150 
0.05150 
0.13400 
0.13400 
0.08700 
0.08700 
0.20850 
0.20850 
0.11600 
0.11600 
0.07600 
0.07600 
0.03950 
0.03950 
0.10450 
0.10450 
0.04200 
0.04200 
0.09900 
0.09900 
0.16150 
0.16150 
0.04200 
0.04200 
0.07800 
0.07800 
0.13850 
0.13850 
0.11150 
0.11150 
0.12450 
0.12450 
0.03150 
0.03150 
0.07100 
0.07100 
0.11400 
0.11400 
0.07300 
0.07300 
0.07400 
0.07400 
0.03200 
0.03200 
0.00550 
0.00550 