# vtk DataFile Version 2.1 
Trajects from timestep 56 with color option 
ASCII 
 
DATASET POLYDATA POINTS 1000 float 
-10.080 1.956 -72.338 
-10.045 1.974 -72.417 
5.609 3.407 -69.911 
5.647 3.490 -70.040 
5.131 7.452 -71.130 
5.032 7.499 -71.233 
-7.298 5.512 -70.386 
-7.230 5.548 -70.491 
-2.229 4.239 -73.380 
-2.192 4.386 -73.548 
1.534 4.592 -68.798 
1.643 4.841 -68.962 
-3.343 -7.051 -72.659 
-3.207 -6.939 -72.560 
-3.733 -12.244 -73.430 
-3.704 -12.050 -73.299 
7.812 6.804 -72.990 
7.723 6.839 -73.109 
0.517 -0.348 -70.133 
0.564 -0.029 -70.219 
4.726 8.705 -71.142 
4.678 8.788 -71.205 
5.632 5.515 -68.860 
5.675 5.616 -68.942 
-3.165 -5.468 -73.394 
-3.179 -5.364 -73.388 
-2.273 5.558 -62.194 
-2.288 5.784 -62.217 
-4.913 -4.547 -69.875 
-4.802 -4.355 -69.833 
2.256 -2.942 -70.842 
2.223 -2.708 -70.877 
-4.928 2.823 -68.267 
-4.805 2.952 -68.256 
-1.045 0.884 -72.167 
-0.941 1.076 -72.261 
-3.648 2.208 -73.180 
-3.587 2.357 -73.193 
0.430 8.414 -72.234 
0.318 8.539 -72.389 
0.193 6.147 -70.506 
0.200 6.321 -70.782 
-0.650 5.407 -70.613 
-0.678 5.606 -70.741 
1.350 -2.860 -69.667 
1.437 -2.496 -69.882 
3.531 -1.918 -67.458 
3.688 -1.541 -67.625 
-3.462 3.308 -71.642 
-3.454 3.439 -71.717 
-8.233 2.208 -72.286 
-8.241 2.198 -72.160 
8.063 0.109 -67.936 
8.341 0.388 -68.106 
-1.635 1.959 -72.348 
-1.510 2.119 -72.432 
-1.057 11.459 -70.038 
-1.291 11.547 -70.135 
-2.707 -3.054 -68.844 
-2.593 -2.921 -68.710 
-4.199 8.641 -70.889 
-4.323 8.800 -71.007 
5.793 -1.750 -67.712 
5.974 -1.501 -67.845 
-1.584 6.219 -68.449 
-1.566 6.458 -68.644 
7.780 5.785 -67.671 
7.838 5.877 -67.749 
-1.875 10.475 -68.129 
-1.988 10.643 -68.144 
3.163 11.853 -69.083 
3.121 12.007 -69.179 
6.979 12.177 -71.701 
6.935 12.202 -71.876 
12.572 -0.230 -70.928 
12.616 -0.086 -71.026 
9.427 6.266 -67.923 
9.407 6.396 -68.024 
-3.804 -2.391 -67.911 
-3.744 -2.210 -67.747 
12.999 -2.089 -69.825 
13.065 -1.971 -69.885 
-5.900 8.875 -73.733 
-5.984 9.034 -73.848 
12.392 -0.809 -71.815 
12.441 -0.693 -71.972 
8.006 5.223 -69.421 
8.007 5.350 -69.524 
-3.765 -3.865 -70.595 
-3.637 -3.686 -70.429 
0.162 1.140 -73.187 
0.290 1.298 -73.319 
-5.915 1.670 -68.854 
-5.822 1.743 -68.889 
-4.032 7.877 -72.130 
-4.151 7.983 -72.311 
8.288 8.692 -68.652 
8.150 8.831 -68.846 
3.362 7.800 -74.980 
3.253 7.809 -75.118 
-6.300 8.512 -64.476 
-6.374 8.760 -64.716 
-8.571 -5.861 -68.702 
-8.471 -5.620 -68.722 
1.670 -5.284 -72.842 
1.670 -5.112 -72.829 
5.589 8.500 -71.111 
5.462 8.567 -71.190 
-8.307 -9.669 -68.763 
-8.256 -9.516 -68.851 
-5.591 -0.710 -67.384 
-5.635 -0.539 -67.261 
-10.113 11.069 -64.874 
-10.027 11.221 -64.942 
11.349 9.083 -65.615 
11.369 9.330 -65.683 
-3.855 1.446 -70.814 
-3.750 1.564 -70.790 
1.625 -2.476 -66.154 
1.694 -2.209 -66.332 
-12.355 -6.056 -75.392 
-12.484 -6.175 -75.448 
-8.305 -4.973 -65.344 
-8.253 -4.716 -65.275 
0.444 3.177 -66.326 
0.612 3.517 -66.502 
2.530 4.187 -67.123 
2.688 4.480 -67.208 
-10.513 -2.632 -68.462 
-10.344 -2.421 -68.399 
-12.344 2.418 -71.191 
-12.237 2.457 -71.273 
-6.564 10.968 -66.459 
-6.597 11.168 -66.565 
-12.041 4.275 -69.533 
-11.979 4.216 -69.579 
8.447 11.559 -70.910 
8.450 11.584 -71.019 
-2.089 11.366 -73.248 
-2.178 11.350 -73.355 
8.305 10.841 -69.293 
8.154 10.894 -69.436 
15.500 3.822 -70.237 
15.543 3.994 -70.399 
-14.475 5.719 -74.012 
-14.560 5.763 -74.021 
5.457 -2.316 -71.569 
5.458 -2.113 -71.553 
-6.564 7.408 -62.764 
-6.494 7.795 -62.858 
-6.349 -5.454 -66.344 
-6.296 -5.268 -66.416 
8.984 -3.700 -71.251 
8.949 -3.648 -71.379 
-8.291 -7.705 -67.494 
-8.233 -7.498 -67.440 
-4.258 11.972 -70.132 
-4.466 12.198 -70.272 
-1.431 5.343 -66.106 
-1.315 5.612 -66.376 
-7.272 -5.199 -64.096 
-7.107 -5.138 -64.066 
2.347 -7.640 -72.959 
2.461 -7.418 -73.003 
-7.669 -8.067 -66.790 
-7.536 -7.817 -66.788 
-4.693 -0.104 -67.740 
-4.668 0.077 -67.699 
-10.507 1.942 -69.850 
-10.429 1.967 -69.811 
1.558 6.984 -70.943 
1.539 7.136 -71.031 
-2.190 -1.736 -69.672 
-2.117 -1.508 -69.583 
-6.221 3.647 -62.082 
-6.185 3.967 -62.166 
-10.216 -3.639 -68.087 
-10.092 -3.518 -67.933 
3.328 -9.241 -75.090 
3.385 -9.167 -75.020 
-9.452 5.070 -67.017 
-9.440 5.277 -66.986 
-8.103 -1.739 -67.988 
-8.044 -1.662 -67.829 
13.369 0.162 -70.544 
13.441 0.351 -70.701 
5.203 -3.966 -65.771 
5.403 -3.744 -66.008 
1.639 4.466 -63.438 
1.739 4.753 -63.566 
13.325 9.960 -65.904 
13.348 10.142 -66.100 
-2.630 -0.884 -73.983 
-2.610 -0.708 -73.899 
-3.452 -6.229 -72.678 
-3.323 -6.065 -72.625 
7.180 4.317 -63.290 
7.150 4.452 -63.355 
-6.704 -3.256 -64.988 
-6.541 -2.990 -64.737 
0.483 2.006 -63.794 
0.698 2.317 -63.903 
-11.495 10.167 -66.132 
-11.431 10.225 -66.203 
-11.955 5.902 -72.457 
-11.995 5.972 -72.459 
0.760 5.352 -70.856 
0.694 5.477 -70.999 
-7.185 2.233 -62.035 
-7.173 2.425 -62.055 
-6.934 4.411 -63.578 
-6.869 4.647 -63.541 
-7.660 4.485 -64.438 
-7.639 4.740 -64.459 
4.819 -10.048 -66.265 
4.868 -9.904 -66.267 
-4.495 -5.878 -70.228 
-4.376 -5.715 -70.206 
-10.304 -2.328 -65.080 
-10.409 -2.029 -64.815 
17.220 0.737 -69.432 
17.293 0.912 -69.536 
6.561 11.231 -66.322 
6.488 11.404 -66.393 
6.765 -4.562 -72.911 
6.683 -4.444 -72.942 
-2.120 -10.371 -68.056 
-2.064 -10.185 -68.145 
-11.247 5.380 -62.997 
-11.222 5.690 -62.956 
-9.047 -2.069 -67.664 
-8.928 -1.917 -67.587 
-11.427 0.645 -68.690 
-11.295 0.745 -68.683 
-7.236 0.081 -65.533 
-7.062 0.244 -65.331 
-12.973 7.878 -69.114 
-12.935 7.883 -69.121 
2.531 9.950 -70.149 
2.428 9.946 -70.148 
-8.756 -8.461 -68.720 
-8.739 -8.308 -68.683 
-13.326 9.130 -73.060 
-13.376 9.175 -73.099 
2.160 -10.883 -66.180 
2.306 -10.674 -66.409 
9.342 11.634 -69.268 
9.279 11.577 -69.376 
6.030 -8.897 -65.516 
6.264 -8.662 -65.540 
-0.545 10.589 -62.513 
-0.627 10.847 -62.599 
-5.494 -11.422 -60.887 
-5.382 -11.252 -60.901 
15.335 10.009 -68.705 
15.298 9.870 -68.898 
-7.949 -1.912 -64.766 
-7.858 -1.814 -64.594 
-8.768 7.948 -63.540 
-8.862 8.077 -63.648 
-10.211 9.567 -65.237 
-10.115 9.719 -65.351 
5.782 -11.541 -74.079 
5.839 -11.511 -74.156 
-7.557 11.726 -64.642 
-7.492 12.037 -64.726 
-2.283 -2.998 -63.850 
-2.037 -2.789 -63.899 
-9.021 -9.505 -66.864 
-8.751 -9.238 -66.908 
-4.953 -6.619 -70.967 
-4.779 -6.235 -71.077 
8.524 -3.457 -75.649 
8.551 -3.403 -75.754 
5.712 11.247 -70.432 
5.584 11.381 -70.588 
-6.873 10.586 -77.575 
-6.929 10.679 -77.736 
-6.392 -1.924 -65.031 
-6.281 -1.699 -64.808 
-8.442 4.687 -62.979 
-8.445 5.006 -63.019 
4.104 -5.908 -68.040 
4.357 -5.660 -68.255 
7.533 11.979 -65.784 
7.512 12.054 -65.787 
16.195 -6.728 -73.644 
16.102 -6.711 -73.825 
-4.814 -9.010 -66.713 
-4.684 -8.831 -66.816 
-0.055 -11.941 -70.418 
0.243 -11.794 -70.689 
1.313 9.365 -63.347 
1.344 9.660 -63.368 
6.621 7.186 -61.117 
6.671 7.527 -60.962 
-3.262 10.308 -75.651 
-3.373 10.404 -75.726 
3.897 -11.079 -71.864 
4.092 -10.980 -71.834 
9.878 -3.084 -65.348 
9.914 -3.016 -65.398 
-2.599 -7.059 -69.643 
-2.581 -6.832 -69.675 
-13.942 8.891 -70.894 
-13.933 8.904 -70.902 
13.480 -0.880 -76.066 
13.383 -0.815 -76.262 
-13.576 -0.580 -70.902 
-13.466 -0.505 -70.963 
-1.134 -9.088 -66.150 
-0.980 -8.894 -66.380 
-4.531 -7.004 -64.229 
-4.234 -6.731 -64.519 
-8.339 9.177 -65.707 
-8.343 9.395 -65.782 
-13.085 8.253 -76.369 
-13.132 8.218 -76.449 
-14.439 -5.387 -68.579 
-14.364 -5.174 -68.504 
2.660 6.266 -65.382 
2.674 6.526 -65.410 
4.700 -13.018 -68.179 
4.899 -12.931 -68.003 
14.512 -4.967 -71.857 
14.543 -4.889 -71.880 
13.092 -3.363 -70.035 
13.168 -3.192 -70.119 
8.303 -3.707 -69.120 
8.497 -3.518 -69.255 
0.021 0.965 -71.316 
0.058 1.276 -71.389 
-3.813 6.437 -60.349 
-3.826 6.601 -60.374 
-2.634 5.758 -75.346 
-2.736 5.864 -75.551 
10.018 -6.590 -72.431 
10.000 -6.491 -72.539 
1.568 -5.750 -68.505 
1.676 -5.454 -68.615 
11.801 3.007 -66.759 
11.844 3.266 -66.835 
2.667 -6.352 -71.760 
2.681 -6.131 -71.907 
-3.127 -11.785 -68.983 
-3.021 -11.567 -69.160 
-1.352 8.078 -72.882 
-1.381 8.189 -73.024 
-12.830 -1.304 -69.463 
-12.712 -1.245 -69.397 
-0.390 -9.169 -60.579 
-0.231 -9.019 -60.780 
14.103 -8.291 -68.249 
14.016 -8.176 -68.232 
10.465 10.576 -67.123 
10.387 10.507 -67.165 
-2.055 -1.294 -65.366 
-1.951 -1.024 -65.397 
-8.108 -3.870 -62.877 
-8.014 -3.752 -62.955 
-5.955 -6.790 -71.010 
-5.934 -6.528 -71.103 
-8.109 8.389 -72.621 
-8.221 8.492 -72.819 
7.452 3.633 -65.562 
7.579 3.830 -65.493 
-3.209 6.835 -70.011 
-3.224 7.083 -70.125 
-5.307 -12.267 -65.852 
-5.162 -12.005 -66.080 
-11.821 -8.372 -69.251 
-11.789 -8.147 -69.148 
-7.602 -1.809 -65.936 
-7.524 -1.694 -65.672 
6.781 4.587 -76.599 
6.657 4.605 -76.884 
9.384 -1.989 -64.741 
9.464 -1.872 -64.814 
10.639 7.921 -67.775 
10.647 8.086 -67.886 
-2.274 11.800 -67.444 
-2.437 11.953 -67.544 
12.074 -3.826 -70.866 
12.103 -3.787 -70.945 
-8.912 10.169 -75.351 
-8.921 10.267 -75.448 
-7.378 -5.524 -66.225 
-7.376 -5.227 -66.183 
6.501 2.384 -63.537 
6.485 2.646 -63.633 
-3.951 7.635 -63.346 
-3.906 7.921 -63.467 
0.359 1.239 -61.834 
0.486 1.517 -61.943 
17.023 9.538 -69.573 
17.047 9.626 -69.832 
-3.104 -1.290 -66.090 
-3.030 -0.986 -66.089 
2.404 -2.647 -65.875 
2.568 -2.320 -66.026 
2.730 -12.296 -66.579 
2.920 -12.235 -66.538 
-8.799 -1.688 -67.831 
-8.718 -1.574 -67.757 
-5.844 2.483 -62.002 
-5.779 2.740 -62.062 
6.292 -13.074 -67.122 
6.477 -12.854 -66.972 
13.198 -3.827 -75.144 
13.175 -3.801 -75.261 
13.689 -3.069 -66.109 
13.736 -2.928 -66.076 
-10.174 5.753 -68.866 
-10.117 5.833 -69.140 
-12.917 11.280 -65.115 
-12.916 11.374 -65.109 
10.757 4.851 -63.507 
10.744 5.130 -63.577 
1.056 -3.485 -63.617 
1.221 -3.172 -63.702 
15.472 -2.719 -70.517 
15.603 -2.596 -70.654 
-6.220 -6.924 -67.838 
-6.275 -6.814 -67.990 
-6.493 9.412 -65.236 
-6.439 9.710 -65.316 
12.862 -8.321 -68.722 
12.841 -8.181 -68.704 
8.614 9.765 -70.282 
8.381 9.784 -70.344 
15.488 -9.768 -71.682 
15.432 -9.630 -71.709 
-13.900 -6.222 -72.112 
-13.953 -6.124 -72.099 
11.603 -4.426 -67.245 
11.680 -4.332 -67.298 
-6.343 -4.752 -64.687 
-6.238 -4.591 -64.478 
11.748 1.021 -71.191 
11.719 1.102 -71.287 
[...]
POINT_DATA 1000 
SCALARS Umean double 1 
LOOKUP_TABLE default
0.04413 
0.04413 
0.07902 
0.07902 
0.07520 
0.07520 
0.06509 
0.06509 
0.11314 
0.11314 
0.15873 
0.15873 
0.10105 
0.10105 
0.11794 
0.11794 
0.07633 
0.07633 
0.16686 
0.16686 
0.05736 
0.05736 
0.06851 
0.06851 
0.05255 
0.05255 
0.11383 
0.11383 
0.11286 
0.11286 
0.11945 
0.11945 
0.08929 
0.08929 
0.11887 
0.11887 
0.08076 
0.08076 
0.11423 
0.11423 
0.16317 
0.16317 
0.11913 
0.11913 
0.21581 
0.21581 
0.22061 
0.22061 
0.07558 
0.07558 
0.06332 
0.06332 
0.21449 
0.21449 
0.10986 
0.10986 
0.13408 
0.13408 
0.11027 
0.11027 
0.11681 
0.11681 
0.16767 
0.16767 
0.15449 
0.15449 
0.06692 
0.06692 
0.10151 
0.10151 
0.09313 
0.09313 
0.09109 
0.09109 
0.08983 
0.08983 
0.08292 
0.08292 
0.12575 
0.12575 
0.07396 
0.07396 
0.10673 
0.10673 
0.10063 
0.10063 
0.08176 
0.08176 
0.13782 
0.13782 
0.12121 
0.12121 
0.06165 
0.06165 
0.12058 
0.12058 
0.13784 
0.13784 
0.08804 
0.08804 
0.17648 
0.17648 
0.13084 
0.13084 
0.08625 
0.08625 
0.08194 
0.08194 
0.09186 
0.09186 
0.10759 
0.10759 
0.09371 
0.09371 
0.12848 
0.12848 
0.07988 
0.07988 
0.16411 
0.16411 
0.09211 
0.09211 
0.13557 
0.13557 
0.20905 
0.20905 
0.17178 
0.17178 
0.13879 
0.13879 
0.07017 
0.07017 
0.11437 
0.11437 
0.04858 
0.04858 
0.05594 
0.05594 
0.07005 
0.07005 
0.10731 
0.10731 
0.12008 
0.12008 
0.04807 
0.04807 
0.10182 
0.10182 
0.20218 
0.20218 
0.10319 
0.10319 
0.07126 
0.07126 
0.11083 
0.11083 
0.16877 
0.16877 
0.19920 
0.19920 
0.08923 
0.08923 
0.12670 
0.12670 
0.14159 
0.14159 
0.09363 
0.09363 
0.04536 
0.04536 
0.08833 
0.08833 
0.12770 
0.12770 
0.16640 
0.16640 
0.11590 
0.11590 
0.05836 
0.05836 
0.10483 
0.10483 
0.09313 
0.09313 
0.12802 
0.12802 
0.19069 
0.19069 
0.16489 
0.16489 
0.13423 
0.13423 
0.09802 
0.09802 
0.10764 
0.10764 
0.07640 
0.07640 
0.20020 
0.20020 
0.19674 
0.19674 
0.05590 
0.05590 
0.04032 
0.04032 
0.10054 
0.10054 
0.09671 
0.09671 
0.12378 
0.12378 
0.12836 
0.12836 
0.07606 
0.07606 
0.10151 
0.10151 
0.20655 
0.20655 
0.10813 
0.10813 
0.10037 
0.10037 
0.07350 
0.07350 
0.10683 
0.10683 
0.15685 
0.15685 
0.10392 
0.10392 
0.08287 
0.08287 
0.15624 
0.15624 
0.01948 
0.01948 
0.05154 
0.05154 
0.07916 
0.07916 
0.03888 
0.03888 
0.17135 
0.17135 
0.06871 
0.06871 
0.16625 
0.16625 
0.14202 
0.14202 
0.10203 
0.10203 
0.12035 
0.12035 
0.10894 
0.10894 
0.09636 
0.09636 
0.10644 
0.10644 
0.05019 
0.05019 
0.16432 
0.16432 
0.16325 
0.16325 
0.19113 
0.19113 
0.21785 
0.21785 
0.06056 
0.06056 
0.12112 
0.12112 
0.09709 
0.09709 
0.16784 
0.16784 
0.16076 
0.16076 
0.20721 
0.20721 
0.03897 
0.03897 
0.10210 
0.10210 
0.12201 
0.12201 
0.21439 
0.21439 
0.14868 
0.14868 
0.18895 
0.18895 
0.08240 
0.08240 
0.11037 
0.11037 
0.04588 
0.04588 
0.11497 
0.11497 
0.00886 
0.00886 
0.11407 
0.11407 
0.07322 
0.07322 
0.16901 
0.16901 
0.24841 
0.24841 
0.11529 
0.11529 
0.04958 
0.04958 
0.11897 
0.11897 
0.13094 
0.13094 
0.13977 
0.13977 
0.04351 
0.04351 
0.10256 
0.10256 
0.15131 
0.15131 
0.16079 
0.16079 
0.08320 
0.08320 
0.12616 
0.12616 
0.07381 
0.07381 
0.16687 
0.16687 
0.13666 
0.13666 
0.13290 
0.13290 
0.15007 
0.15007 
0.09128 
0.09128 
0.07376 
0.07376 
0.14848 
0.14848 
0.07260 
0.07260 
0.05614 
0.05614 
0.14550 
0.14550 
0.08492 
0.08492 
0.13940 
0.13940 
0.12486 
0.12486 
0.12217 
0.12217 
0.13668 
0.13668 
0.18818 
0.18818 
0.12476 
0.12476 
0.14917 
0.14917 
0.15566 
0.15566 
0.07972 
0.07972 
0.09951 
0.09951 
0.12245 
0.12245 
0.04638 
0.04638 
0.06909 
0.06909 
0.14998 
0.14998 
0.13975 
0.13975 
0.15689 
0.15689 
0.16225 
0.16225 
0.13730 
0.13730 
0.15644 
0.15644 
0.19788 
0.19788 
0.10186 
0.10186 
0.07911 
0.07911 
0.13590 
0.13590 
0.16211 
0.16211 
0.06102 
0.06102 
0.07612 
0.07612 
0.14554 
0.14554 
0.04710 
0.04710 
0.14397 
0.14397 
0.18195 
0.18195 
0.11298 
0.11298 
0.09776 
0.09776 
0.15662 
0.15662 
0.07135 
0.07135 
0.12093 
0.12093 
0.07568 
0.07568 
0.05608 
0.05608 
0.06628 
0.06628 
0.14197 
0.14197 
0.06446 
0.06446 
0.12721 
0.12721 
0.13495 
0.13495 
0.12187 
0.12187 
0.07795 
0.07795 
0.13380 
0.13380 
0.14230 
0.14230 
0.14158 
0.14158 
0.14510 
0.14510 
0.12999 
0.12999 
0.15472 
0.15472 
0.05668 
0.05668 
0.12787 
0.12787 
0.09566 
0.09566 
0.13211 
0.13211 
0.03636 
0.03636 
0.06038 
0.06038 
0.17247 
0.17247 
0.13102 
0.13102 
0.17373 
0.17373 
0.12475 
0.12475 
0.16569 
0.16569 
0.17245 
0.17245 
0.05835 
0.05835 
0.23592 
0.23592 
0.09179 
0.09179 
0.14528 
0.14528 
0.11111 
0.11111 
0.17273 
0.17273 
0.09384 
0.09384 
0.04080 
0.04080 
0.09558 
0.09558 
0.14931 
0.14931 
0.10316 
0.10316 
0.11713 
0.11713 
0.10368 
0.10368 
0.12029 
0.12029 
0.16802 
0.16802 
0.07206 
0.07206 
0.15835 
0.15835 
0.13250 
0.13250 
0.10455 
0.10455 
0.14650 
0.14650 
0.18459 
0.18459 
0.17325 
0.17325 
0.13806 
0.13806 
0.02842 
0.02842 
0.20766 
0.20766 
0.15794 
0.15794 
0.06208 
0.06208 
0.12318 
0.12318 
0.10608 
0.10608 
0.19445 
0.19445 
0.21785 
0.21785 
0.06095 
0.06095 
0.07139 
0.07139 
0.09705 
0.09705 
0.03363 
0.03363 
0.11432 
0.11432 
0.11222 
0.11222 
0.12374 
0.12374 
0.12847 
0.12847 
0.12870 
0.12870 
0.15332 
0.15332 
0.12164 
0.12164 
0.17729 
0.17729 
0.06337 
0.06337 
0.10730 
0.10730 
0.09387 
0.09387 
0.09409 
0.09409 
0.14025 
0.14025 
0.09947 
0.09947 
0.07179 
0.07179 
0.13496 
0.13496 
0.20574 
0.20574 
0.03729 
0.03729 
0.12125 
0.12125 
0.19974 
0.19974 
0.17661 
0.17661 
0.07647 
0.07647 
0.03145 
0.03145 
0.14115 
0.14115 
0.01423 
0.01423 
0.10140 
0.10140 
0.07744 
0.07744 
0.15465 
0.15465 
0.15485 
0.15485 
0.11692 
0.11692 
0.12692 
0.12692 
0.09147 
0.09147 
0.05571 
0.05571 
0.07387 
0.07387 
0.15034 
0.15034 
0.03650 
0.03650 
0.10888 
0.10888 
0.16064 
0.16064 
0.17513 
0.17513 
0.13255 
0.13255 
0.14704 
0.14704 
0.06658 
0.06658 
0.03953 
0.03953 
0.13322 
0.13322 
0.20972 
0.20972 
0.09505 
0.09505 
0.07829 
0.07829 
0.17380 
0.17380 
0.14972 
0.14972 
0.12339 
0.12339 
0.09533 
0.09533 
0.12861 
0.12861 
0.06396 
0.06396 
0.06664 
0.06664 
0.10527 
0.10527 
0.10420 
0.10420 
0.16704 
0.16704 
0.05347 
0.05347 
0.06454 
0.06454 
0.08507 
0.08507 
0.14657 
0.14657 
0.10769 
0.10769 
0.09812 
0.09812 
0.05468 
0.05468 
0.10690 
0.10690 
0.17445 
0.17445 
0.15582 
0.15582 
0.09889 
0.09889 
0.05497 
0.05497 
0.11833 
0.11833 
0.15941 
0.15941 
0.07322 
0.07322 
0.11017 
0.11017 
0.09598 
0.09598 
0.26774 
0.26774 
0.08818 
0.08818 
0.17326 
0.17326 
0.19654 
0.19654 
0.08142 
0.08142 
0.20896 
0.20896 
0.05663 
0.05663 
0.10508 
0.10508 
0.12767 
0.12767 
0.13199 
0.13199 
0.03932 
0.03932 
0.17357 
0.17357 
0.17313 
0.17313 
0.04375 
0.04375 
0.15758 
0.15758 
0.10805 
0.10805 
0.11301 
0.11301 
0.12668 
0.12668 
0.10579 
0.10579 
0.08530 
0.08530 
0.14822 
0.14822 
0.08729 
0.08729 
0.02071 
0.02071 
0.12070 
0.12070 
0.05863 
0.05863 
0.10441 
0.10441 
0.13648 
0.13648 
0.06496 
0.06496 
0.12636 
0.12636 
0.04555 
0.04555 
0.19361 
0.19361 
0.10954 
0.10954 
0.13258 
0.13258 
0.06795 
0.06795 
0.12385 
0.12385 
0.20500 
0.20500 
0.17786 
0.17786 
0.15924 
0.15924 
0.19062 
0.19062 
0.08327 
0.08327 
0.20557 
0.20557 
0.07449 
0.07449 
0.18429 
0.18429 
0.16883 
0.16883 
0.14952 
0.14952 
0.12313 
0.12313 
0.09739 
0.09739 
0.06859 
0.06859 
0.12854 
0.12854 
0.03517 
0.03517 
0.22740 
0.22740 
0.23924 
0.23924 
0.10761 
0.10761 
0.13676 
0.13676 
0.12606 
0.12606 
0.08087 
0.08087 
0.17777 
0.17777 
0.09382 
0.09382 
0.07797 
0.07797 
0.06594 
0.06594 
0.15118 
0.15118 
0.17371 
0.17371 
0.01419 
0.01419 
0.12359 
0.12359 
0.08938 
0.08938 
0.13519 
0.13519 
0.19862 
0.19862 
0.10335 
0.10335 
0.26222 
0.26222 
0.11818 
0.11818 
0.19442 
0.19442 
0.04363 
0.04363 
0.13668 
0.13668 
0.14083 
0.14083 
0.19467 
0.19467 
0.10763 
0.10763 
0.22111 
0.22111 
0.12968 
0.12968 
0.12900 
0.12900 
0.11652 
0.11652 
0.11166 
0.11166 
0.11390 
0.11390 
0.19788 
0.19788 
0.10763 
0.10763 
0.16129 
0.16129 
0.16720 
0.16720 
0.15466 
0.15466 
0.09249 
0.09249 
0.12126 
0.12126 
0.19845 
0.19845 
0.11221 
0.11221 
0.11069 
0.11069 
0.06290 
0.06290 
0.07236 
0.07236 
0.15387 
0.15387 
0.03982 
0.03982 
0.11482 
0.11482 
0.04434 
0.04434 
0.14909 
0.14909 
0.08816 
0.08816 
0.18610 
0.18610 
0.08789 
0.08789 
0.08549 
0.08549 
0.10001 
0.10001 
0.12003 
0.12003 
0.08765 
0.08765 
0.05241 
0.05241 
0.18459 
0.18459 
0.26277 
0.26277 
0.10967 
0.10967 
0.11544 
0.11544 
0.15569 
0.15569 
0.08246 
0.08246 
0.11796 
0.11796 
0.12460 
0.12460 
0.24211 
0.24211 
0.07547 
0.07547 
0.03312 
0.03312 
0.14513 
0.14513 
0.13934 
0.13934 
0.08806 
0.08806 
0.06306 
0.06306 
0.18451 
0.18451 
0.03864 
0.03864 
0.12503 
0.12503 
0.10953 
0.10953 
0.11723 
0.11723 
0.09817 
0.09817 
0.11393 
0.11393 
0.07521 
0.07521 
0.10104 
0.10104 
0.08618 
0.08618 
0.10415 
0.10415 
0.18864 
0.18864 
0.09653 
0.09653 
0.14261 
0.14261 
0.11482 
0.11482 
0.14273 
0.14273 
0.08935 
0.08935 
0.13698 
0.13698 
0.04800 
0.04800 
0.11115 
0.11115 
0.07277 
0.07277 
0.08981 
0.08981 
0.07283 
0.07283 
0.12644 
0.12644 
0.14922 
0.14922 
0.15630 
0.15630 
0.16863 
0.16863 
SCALARS Umean_X double 1 
LOOKUP_TABLE default
0.01750 
0.01750 
0.01900 
0.01900 
-0.04950 
-0.04950 
0.03400 
0.03400 
0.01850 
0.01850 
0.05450 
0.05450 
0.06800 
0.06800 
0.01450 
0.01450 
-0.04450 
-0.04450 
0.02350 
0.02350 
-0.02400 
-0.02400 
0.02150 
0.02150 
-0.00700 
-0.00700 
-0.00750 
-0.00750 
0.05550 
0.05550 
-0.01650 
-0.01650 
0.06150 
0.06150 
0.05200 
0.05200 
0.03050 
0.03050 
-0.05600 
-0.05600 
0.00350 
0.00350 
-0.01400 
-0.01400 
0.04350 
0.04350 
0.07850 
0.07850 
0.00400 
0.00400 
-0.00400 
-0.00400 
0.13900 
0.13900 
0.06250 
0.06250 
-0.11700 
-0.11700 
0.05700 
0.05700 
-0.06200 
-0.06200 
0.09050 
0.09050 
0.00900 
0.00900 
0.02900 
0.02900 
-0.05650 
-0.05650 
-0.02100 
-0.02100 
-0.02200 
-0.02200 
0.02200 
0.02200 
-0.01000 
-0.01000 
0.03000 
0.03000 
0.03300 
0.03300 
-0.04200 
-0.04200 
0.02450 
0.02450 
0.00050 
0.00050 
0.06400 
0.06400 
0.06400 
0.06400 
0.04650 
0.04650 
-0.05950 
-0.05950 
-0.06900 
-0.06900 
-0.05450 
-0.05450 
-0.03700 
-0.03700 
0.05000 
0.05000 
-0.00000 
-0.00000 
-0.06350 
-0.06350 
0.02550 
0.02550 
-0.02200 
-0.02200 
0.04300 
0.04300 
0.01000 
0.01000 
0.05250 
0.05250 
0.03450 
0.03450 
-0.06450 
-0.06450 
0.02600 
0.02600 
0.08400 
0.08400 
0.07900 
0.07900 
0.08450 
0.08450 
0.05350 
0.05350 
-0.01650 
-0.01650 
0.03100 
0.03100 
0.00150 
0.00150 
-0.04450 
-0.04450 
-0.07550 
-0.07550 
0.02150 
0.02150 
-0.04250 
-0.04250 
0.00050 
0.00050 
0.03500 
0.03500 
0.02650 
0.02650 
-0.01750 
-0.01750 
0.02900 
0.02900 
-0.10400 
-0.10400 
0.05800 
0.05800 
0.08250 
0.08250 
0.05700 
0.05700 
0.06650 
0.06650 
0.01250 
0.01250 
0.03900 
0.03900 
-0.00950 
-0.00950 
0.03650 
0.03650 
0.01800 
0.01800 
0.06200 
0.06200 
0.02850 
0.02850 
0.00600 
0.00600 
0.02950 
0.02950 
0.03600 
0.03600 
0.10000 
0.10000 
0.05000 
0.05000 
0.01150 
0.01150 
0.01000 
0.01000 
0.06450 
0.06450 
-0.01500 
-0.01500 
0.08150 
0.08150 
0.10750 
0.10750 
0.03200 
0.03200 
-0.02000 
-0.02000 
-0.03300 
-0.03300 
0.00600 
0.00600 
0.03250 
0.03250 
0.01050 
0.01050 
0.02450 
0.02450 
0.05950 
0.05950 
-0.05250 
-0.05250 
0.03650 
0.03650 
-0.03650 
-0.03650 
-0.04100 
-0.04100 
0.02800 
0.02800 
0.01250 
0.01250 
0.05950 
0.05950 
0.06600 
0.06600 
0.08700 
0.08700 
0.01900 
0.01900 
-0.05150 
-0.05150 
0.00850 
0.00850 
-0.02500 
-0.02500 
0.07300 
0.07300 
-0.03150 
-0.03150 
0.11700 
0.11700 
-0.04100 
-0.04100 
0.05600 
0.05600 
-0.01850 
-0.01850 
0.04550 
0.04550 
-0.04700 
-0.04700 
0.04800 
0.04800 
0.02850 
0.02850 
0.03250 
0.03250 
0.12300 
0.12300 
0.13500 
0.13500 
0.08700 
0.08700 
0.01350 
0.01350 
-0.06400 
-0.06400 
-0.02800 
-0.02800 
0.05550 
0.05550 
-0.00150 
-0.00150 
0.12650 
0.12650 
-0.01050 
-0.01050 
-0.04650 
-0.04650 
0.06500 
0.06500 
0.14900 
0.14900 
0.01550 
0.01550 
0.02500 
0.02500 
-0.05550 
-0.05550 
0.09750 
0.09750 
0.01800 
0.01800 
0.00900 
0.00900 
0.00450 
0.00450 
-0.04850 
-0.04850 
0.05500 
0.05500 
0.07700 
0.07700 
0.14850 
0.14850 
-0.00200 
-0.00200 
-0.02350 
-0.02350 
0.03750 
0.03750 
0.00700 
0.00700 
0.09950 
0.09950 
0.01550 
0.01550 
0.03800 
0.03800 
0.09700 
0.09700 
0.01850 
0.01850 
-0.00650 
-0.00650 
-0.05100 
-0.05100 
-0.00900 
-0.00900 
0.05400 
0.05400 
0.02150 
0.02150 
0.00700 
0.00700 
0.05300 
0.05300 
-0.01450 
-0.01450 
0.05900 
0.05900 
0.07950 
0.07950 
-0.04350 
-0.04350 
-0.03900 
-0.03900 
0.05200 
0.05200 
0.04700 
0.04700 
0.01050 
0.01050 
-0.05600 
-0.05600 
0.06350 
0.06350 
-0.00750 
-0.00750 
0.07250 
0.07250 
0.01600 
0.01600 
0.03900 
0.03900 
-0.06200 
-0.06200 
0.04000 
0.04000 
0.00400 
0.00400 
-0.08150 
-0.08150 
0.01450 
0.01450 
-0.00450 
-0.00450 
0.00100 
0.00100 
-0.00800 
-0.00800 
0.02250 
0.02250 
0.06350 
0.06350 
0.01200 
0.01200 
0.03700 
0.03700 
0.08200 
0.08200 
0.09500 
0.09500 
0.04050 
0.04050 
0.03250 
0.03250 
0.09250 
0.09250 
-0.01150 
-0.01150 
0.02350 
0.02350 
0.02850 
0.02850 
0.00050 
0.00050 
-0.00650 
-0.00650 
0.08250 
0.08250 
0.06550 
0.06550 
-0.02750 
-0.02750 
0.02700 
0.02700 
-0.01050 
-0.01050 
-0.11650 
-0.11650 
-0.02800 
-0.02800 
-0.02650 
-0.02650 
0.03850 
0.03850 
0.05250 
0.05250 
-0.01450 
-0.01450 
-0.00050 
-0.00050 
0.03250 
0.03250 
-0.04900 
-0.04900 
-0.03000 
-0.03000 
0.05000 
0.05000 
0.04000 
0.04000 
0.04400 
0.04400 
-0.01050 
-0.01050 
0.05100 
0.05100 
0.02300 
0.02300 
0.05050 
0.05050 
-0.07550 
-0.07550 
-0.07350 
-0.07350 
-0.05100 
-0.05100 
-0.01500 
-0.01500 
0.01550 
0.01550 
0.02950 
0.02950 
0.05600 
0.05600 
0.04200 
0.04200 
0.06150 
0.06150 
0.04300 
0.04300 
0.10450 
0.10450 
-0.02950 
-0.02950 
0.13900 
0.13900 
-0.05450 
-0.05450 
0.01200 
0.01200 
0.00200 
0.00200 
0.01150 
0.01150 
0.00800 
0.00800 
0.01050 
0.01050 
0.05950 
0.05950 
-0.00900 
-0.00900 
0.01600 
0.01600 
-0.07250 
-0.07250 
0.04050 
0.04050 
-0.08200 
-0.08200 
0.10450 
0.10450 
0.04700 
0.04700 
0.15600 
0.15600 
0.04800 
0.04800 
-0.07150 
-0.07150 
0.03150 
0.03150 
0.05400 
0.05400 
0.13600 
0.13600 
0.10400 
0.10400 
-0.02650 
-0.02650 
0.18050 
0.18050 
-0.09700 
-0.09700 
-0.03000 
-0.03000 
0.05600 
0.05600 
0.05450 
0.05450 
0.05900 
0.05900 
0.00200 
0.00200 
0.02400 
0.02400 
0.04000 
0.04000 
0.02800 
0.02800 
-0.01500 
-0.01500 
0.03250 
0.03250 
-0.05350 
-0.05350 
-0.01250 
-0.01250 
-0.07750 
-0.07750 
-0.05300 
-0.05300 
0.08400 
0.08400 
0.00350 
0.00350 
-0.11750 
-0.11750 
0.01900 
0.01900 
0.00100 
0.00100 
-0.02450 
-0.02450 
-0.04200 
-0.04200 
0.05600 
0.05600 
0.00900 
0.00900 
0.01100 
0.01100 
-0.00200 
-0.00200 
-0.14000 
-0.14000 
-0.00700 
-0.00700 
0.02800 
0.02800 
0.01800 
0.01800 
0.11750 
0.11750 
0.05500 
0.05500 
-0.02450 
-0.02450 
0.05350 
0.05350 
0.01150 
0.01150 
-0.02300 
-0.02300 
0.03350 
0.03350 
0.15300 
0.15300 
0.14450 
0.14450 
0.05400 
0.05400 
0.01150 
0.01150 
0.01350 
0.01350 
0.03700 
0.03700 
-0.07100 
-0.07100 
0.01600 
0.01600 
-0.00450 
-0.00450 
-0.01150 
-0.01150 
0.08800 
0.08800 
0.02700 
0.02700 
0.04850 
0.04850 
0.04850 
0.04850 
0.01300 
0.01300 
0.02950 
0.02950 
0.05600 
0.05600 
0.02050 
0.02050 
0.03450 
0.03450 
0.01050 
0.01050 
0.04950 
0.04950 
-0.03200 
-0.03200 
-0.04950 
-0.04950 
-0.03250 
-0.03250 
-0.06050 
-0.06050 
-0.02400 
-0.02400 
-0.00250 
-0.00250 
0.05700 
0.05700 
0.00400 
0.00400 
-0.01300 
-0.01300 
-0.01700 
-0.01700 
0.01800 
0.01800 
0.00950 
0.00950 
0.07450 
0.07450 
-0.02200 
-0.02200 
-0.01300 
-0.01300 
0.01400 
0.01400 
-0.02900 
-0.02900 
0.00600 
0.00600 
0.05800 
0.05800 
0.00400 
0.00400 
0.01900 
0.01900 
-0.06700 
-0.06700 
0.02350 
0.02350 
-0.00450 
-0.00450 
0.04550 
0.04550 
0.00200 
0.00200 
0.12600 
0.12600 
0.03550 
0.03550 
-0.03750 
-0.03750 
0.12150 
0.12150 
-0.03550 
-0.03550 
0.02050 
0.02050 
-0.04950 
-0.04950 
0.06200 
0.06200 
0.01700 
0.01700 
0.02750 
0.02750 
0.00300 
0.00300 
0.02000 
0.02000 
0.02950 
0.02950 
-0.04350 
-0.04350 
0.06200 
0.06200 
0.02300 
0.02300 
0.08600 
0.08600 
-0.02150 
-0.02150 
0.07800 
0.07800 
0.04500 
0.04500 
-0.01950 
-0.01950 
0.08300 
0.08300 
0.00200 
0.00200 
0.07400 
0.07400 
0.05800 
0.05800 
0.04400 
0.04400 
0.05100 
0.05100 
0.02600 
0.02600 
-0.02650 
-0.02650 
-0.02300 
-0.02300 
0.06300 
0.06300 
0.02800 
0.02800 
0.02600 
0.02600 
-0.00100 
-0.00100 
0.06100 
0.06100 
0.15450 
0.15450 
-0.00100 
-0.00100 
0.05250 
0.05250 
0.04050 
0.04050 
-0.02450 
-0.02450 
0.09850 
0.09850 
0.04600 
0.04600 
0.10750 
0.10750 
0.11600 
0.11600 
-0.08250 
-0.08250 
-0.03700 
-0.03700 
0.04600 
0.04600 
-0.00800 
-0.00800 
0.04350 
0.04350 
-0.02100 
-0.02100 
0.13700 
0.13700 
0.07000 
0.07000 
0.05300 
0.05300 
-0.02750 
-0.02750 
-0.00850 
-0.00850 
0.03800 
0.03800 
0.15500 
0.15500 
0.03900 
0.03900 
-0.00650 
-0.00650 
0.00700 
0.00700 
0.00200 
0.00200 
0.05700 
0.05700 
-0.01200 
-0.01200 
-0.01300 
-0.01300 
-0.00050 
-0.00050 
0.01150 
0.01150 
0.07500 
0.07500 
0.08550 
0.08550 
0.03450 
0.03450 
-0.08450 
-0.08450 
0.11500 
0.11500 
0.03250 
0.03250 
0.00350 
0.00350 
0.02150 
0.02150 
0.09700 
0.09700 
-0.02800 
-0.02800 
0.06750 
0.06750 
-0.06750 
-0.06750 
0.12800 
0.12800 
-0.02400 
-0.02400 
0.03350 
0.03350 
-0.01250 
-0.01250 
0.06750 
0.06750 
-0.04300 
-0.04300 
-0.10300 
-0.10300 
0.01500 
0.01500 
0.06200 
0.06200 
0.02450 
0.02450 
0.03800 
0.03800 
0.09300 
0.09300 
0.06000 
0.06000 
-0.01950 
-0.01950 
0.03750 
0.03750 
0.00150 
0.00150 
-0.01900 
-0.01900 
0.01500 
0.01500 
-0.04950 
-0.04950 
-0.03000 
-0.03000 
0.09400 
0.09400 
0.06950 
0.06950 
0.14400 
0.14400 
-0.01950 
-0.01950 
0.02200 
0.02200 
-0.03000 
-0.03000 
-0.01850 
-0.01850 
-0.02350 
-0.02350 
-0.00350 
-0.00350 
0.10550 
0.10550 
-0.03900 
-0.03900 
-0.00650 
-0.00650 
-0.05650 
-0.05650 
-0.00050 
-0.00050 
0.02950 
0.02950 
-0.03700 
-0.03700 
0.07400 
0.07400 
0.15400 
0.15400 
-0.06950 
-0.06950 
0.02100 
0.02100 
0.08200 
0.08200 
0.10800 
0.10800 
-0.03150 
-0.03150 
-0.01000 
-0.01000 
0.02450 
0.02450 
-0.02000 
-0.02000 
-0.00000 
-0.00000 
0.00650 
0.00650 
0.02100 
0.02100 
-0.03000 
-0.03000 
0.03500 
0.03500 
-0.01100 
-0.01100 
-0.02850 
-0.02850 
0.01650 
0.01650 
-0.01700 
-0.01700 
0.09350 
0.09350 
-0.08750 
-0.08750 
0.13500 
0.13500 
0.02150 
0.02150 
0.00250 
0.00250 
-0.04200 
-0.04200 
-0.02050 
-0.02050 
0.01850 
0.01850 
0.04250 
0.04250 
-0.06300 
-0.06300 
0.04150 
0.04150 
0.01900 
0.01900 
0.10850 
0.10850 
-0.10450 
-0.10450 
0.09150 
0.09150 
-0.05150 
-0.05150 
SCALARS Umean_Y double 1 
LOOKUP_TABLE default
0.00900 
0.00900 
0.04150 
0.04150 
0.02350 
0.02350 
0.01800 
0.01800 
0.07350 
0.07350 
0.12450 
0.12450 
0.05600 
0.05600 
0.09700 
0.09700 
0.01750 
0.01750 
0.15950 
0.15950 
0.04150 
0.04150 
0.05050 
0.05050 
0.05200 
0.05200 
0.11300 
0.11300 
0.09600 
0.09600 
0.11700 
0.11700 
0.06450 
0.06450 
0.09600 
0.09600 
0.07450 
0.07450 
0.06250 
0.06250 
0.08700 
0.08700 
0.09950 
0.09950 
0.18200 
0.18200 
0.18850 
0.18850 
0.06550 
0.06550 
-0.00500 
-0.00500 
0.13950 
0.13950 
0.08000 
0.08000 
0.04400 
0.04400 
0.06650 
0.06650 
0.07950 
0.07950 
0.12450 
0.12450 
0.11950 
0.11950 
0.04600 
0.04600 
0.08400 
0.08400 
0.07700 
0.07700 
0.01250 
0.01250 
0.07200 
0.07200 
0.06500 
0.06500 
0.09050 
0.09050 
0.05900 
0.05900 
0.07950 
0.07950 
0.05800 
0.05800 
0.06350 
0.06350 
0.08950 
0.08950 
0.07900 
0.07900 
0.03650 
0.03650 
0.05300 
0.05300 
0.06950 
0.06950 
0.00450 
0.00450 
0.12400 
0.12400 
0.12050 
0.12050 
0.08600 
0.08600 
0.03350 
0.03350 
0.07650 
0.07650 
0.08550 
0.08550 
0.07600 
0.07600 
0.12350 
0.12350 
0.05900 
0.05900 
0.13350 
0.13350 
-0.05950 
-0.05950 
0.12850 
0.12850 
0.17000 
0.17000 
0.14650 
0.14650 
0.10550 
0.10550 
0.01950 
0.01950 
0.10000 
0.10000 
-0.02950 
-0.02950 
0.01250 
0.01250 
-0.00800 
-0.00800 
0.02650 
0.02650 
0.08600 
0.08600 
0.02200 
0.02200 
0.10150 
0.10150 
0.19350 
0.19350 
0.09300 
0.09300 
0.02600 
0.02600 
0.10350 
0.10350 
0.11300 
0.11300 
0.13450 
0.13450 
0.03050 
0.03050 
0.11100 
0.11100 
0.12500 