# vtk DataFile Version 2.1 
Trajects from timestep 119 with color option 
ASCII 
 
DATASET POLYDATA POINTS 1042 float 
-4.406 3.816 -71.541 
-4.262 3.998 -71.626 
5.345 1.313 -71.944 
5.452 1.475 -72.164 
9.005 0.498 -68.923 
9.067 0.823 -69.030 
0.040 7.725 -68.222 
0.082 7.923 -68.207 
9.999 5.397 -72.372 
10.122 5.523 -72.574 
2.829 5.660 -69.514 
2.889 5.890 -69.517 
-1.275 10.577 -68.558 
-1.175 10.805 -68.520 
-0.944 5.801 -71.726 
-0.848 6.024 -71.686 
6.958 9.965 -70.053 
6.876 9.963 -70.021 
-8.605 8.868 -69.353 
-8.509 9.025 -69.124 
8.868 5.354 -69.111 
8.992 5.487 -69.241 
-7.294 0.992 -75.420 
-7.171 1.138 -75.555 
6.801 5.232 -67.594 
6.825 5.491 -67.745 
-10.863 8.588 -71.134 
-10.788 8.856 -71.033 
1.296 10.573 -69.563 
1.341 10.730 -69.512 
9.871 2.782 -71.569 
9.995 2.905 -71.896 
1.630 8.222 -71.840 
1.601 8.454 -71.876 
0.320 7.906 -74.450 
0.428 8.216 -74.468 
-1.178 4.114 -73.833 
-1.067 4.256 -73.840 
6.715 5.733 -72.347 
6.880 5.972 -72.547 
-15.650 10.129 -73.230 
-15.642 10.047 -73.234 
5.521 10.761 -73.156 
5.471 10.819 -73.237 
-2.863 7.548 -68.836 
-2.856 7.790 -68.866 
-0.505 7.005 -69.319 
-0.421 7.293 -69.337 
-3.386 -12.402 -72.573 
-3.271 -12.268 -72.589 
-7.337 1.752 -68.193 
-7.248 2.076 -68.397 
1.346 11.071 -67.301 
1.374 11.196 -67.212 
-6.467 4.260 -69.963 
-6.329 4.479 -70.059 
-0.238 9.525 -68.827 
-0.180 9.680 -68.802 
2.342 0.601 -73.463 
2.446 0.793 -73.594 
5.363 -3.248 -72.906 
5.538 -3.079 -73.073 
-2.816 -0.771 -67.713 
-2.705 -0.481 -67.916 
8.660 2.856 -66.882 
8.650 3.217 -66.910 
2.460 1.492 -69.031 
2.696 1.762 -69.214 
6.178 1.965 -72.180 
6.291 2.203 -72.405 
-3.915 1.264 -67.247 
-3.804 1.496 -67.300 
7.879 -1.450 -70.222 
7.926 -1.220 -70.543 
-0.571 12.402 -65.714 
-0.549 12.664 -65.628 
-3.934 10.071 -67.758 
-3.845 10.192 -67.701 
0.240 12.431 -69.181 
0.155 12.623 -69.182 
1.698 8.134 -67.695 
1.711 8.331 -67.672 
-14.223 -8.172 -74.195 
-14.247 -8.003 -74.171 
-0.488 3.304 -66.089 
-0.451 3.479 -66.240 
3.888 11.278 -68.944 
3.802 11.458 -68.927 
1.454 9.597 -66.297 
1.481 9.787 -66.218 
-8.017 -5.717 -69.703 
-7.997 -5.649 -69.899 
-15.112 -6.359 -71.214 
-14.952 -6.325 -71.457 
-7.098 11.502 -68.759 
-6.945 11.588 -68.706 
5.084 -10.412 -70.093 
5.257 -10.346 -70.353 
-6.808 7.829 -75.613 
-6.726 8.024 -75.499 
-3.960 7.976 -67.938 
-3.882 8.142 -67.763 
-4.822 3.997 -64.261 
-4.756 4.243 -64.255 
4.276 6.387 -66.819 
4.322 6.503 -66.942 
-5.374 -0.014 -70.143 
-5.310 0.191 -70.168 
-1.524 -10.281 -70.165 
-1.348 -10.228 -70.345 
-6.069 0.293 -64.439 
-6.117 0.478 -64.495 
0.043 -12.018 -67.781 
0.224 -11.889 -67.907 
-12.972 -8.421 -66.750 
-12.903 -8.374 -67.072 
1.582 11.915 -65.266 
1.612 12.044 -65.076 
8.119 -2.415 -68.821 
8.209 -2.220 -69.275 
3.850 2.929 -66.742 
3.912 3.153 -66.800 
-10.218 6.051 -62.598 
-10.281 6.267 -62.555 
-6.165 -1.082 -66.943 
-5.982 -0.769 -67.282 
9.358 10.997 -71.170 
9.363 10.869 -71.440 
-7.455 1.711 -64.668 
-7.430 1.940 -64.823 
-7.260 -3.298 -66.107 
-7.038 -3.097 -66.501 
9.155 7.136 -68.676 
9.283 7.265 -68.757 
-2.591 3.691 -62.981 
-2.628 3.846 -63.016 
10.779 6.389 -62.755 
10.824 6.629 -62.821 
-9.964 11.876 -70.839 
-9.856 12.045 -70.833 
4.067 1.351 -64.674 
4.164 1.428 -64.738 
-7.119 -5.265 -68.022 
-6.873 -5.089 -68.418 
0.640 -9.480 -66.153 
0.841 -9.371 -66.216 
16.530 0.274 -67.763 
16.482 0.359 -67.809 
8.198 0.826 -73.547 
8.389 0.997 -73.703 
3.771 -6.561 -67.133 
4.028 -6.373 -67.250 
-3.180 4.583 -73.138 
-3.060 4.903 -73.114 
3.791 -9.357 -68.460 
4.005 -9.242 -68.574 
14.204 3.143 -67.747 
14.324 3.341 -67.851 
-6.937 -8.886 -69.755 
-6.916 -8.793 -69.927 
-10.735 6.152 -68.282 
-10.730 6.417 -68.197 
-9.243 3.330 -73.284 
-9.218 3.586 -73.342 
9.695 -5.061 -70.188 
9.810 -4.924 -70.504 
-7.493 -5.424 -74.781 
-7.363 -5.116 -74.855 
16.307 8.197 -68.355 
16.496 8.359 -68.480 
-0.067 -10.625 -71.305 
0.186 -10.574 -71.483 
-10.254 -5.469 -67.391 
-10.036 -5.300 -67.520 
0.721 6.527 -63.382 
0.721 6.667 -63.431 
1.400 1.047 -68.760 
1.559 1.306 -68.844 
-1.382 12.203 -67.490 
-1.439 12.355 -67.442 
5.201 -7.059 -71.599 
5.337 -6.872 -71.911 
-2.157 -7.176 -66.439 
-2.076 -7.187 -66.681 
-2.945 -6.323 -65.975 
-2.820 -6.424 -66.361 
5.830 -8.263 -69.972 
5.940 -8.115 -70.342 
1.883 5.672 -70.121 
1.892 5.867 -70.101 
0.054 -11.141 -65.402 
0.266 -11.050 -65.340 
3.393 -9.234 -64.429 
3.559 -9.195 -64.646 
12.974 -3.693 -68.716 
13.060 -3.689 -68.656 
-15.672 9.186 -73.291 
-15.674 9.107 -73.210 
11.660 7.248 -70.587 
11.637 7.117 -70.685 
12.653 0.850 -67.084 
12.733 1.009 -67.079 
0.133 1.340 -64.101 
0.226 1.439 -64.202 
1.662 -12.668 -68.446 
1.827 -12.633 -68.464 
10.807 10.285 -68.886 
11.015 10.091 -69.018 
-4.471 -3.864 -67.488 
-4.383 -3.831 -67.851 
9.981 -0.633 -68.248 
9.961 -0.456 -68.258 
4.820 -11.777 -68.244 
4.875 -11.780 -68.433 
-2.981 9.005 -63.256 
-2.926 9.195 -63.059 
15.737 5.432 -71.537 
15.857 5.542 -71.765 
0.519 -7.669 -66.028 
0.821 -7.544 -66.343 
-2.028 -4.178 -62.205 
-1.801 -3.993 -62.734 
-7.243 4.983 -70.184 
-7.066 5.257 -70.268 
-3.014 -10.623 -68.749 
-2.860 -10.455 -68.974 
4.870 -10.442 -66.197 
5.150 -10.343 -66.336 
8.990 2.951 -63.300 
9.092 3.229 -63.401 
11.479 12.691 -67.584 
11.579 12.363 -67.541 
-10.745 -3.260 -72.597 
-10.664 -2.960 -72.667 
-5.832 8.162 -63.133 
-5.833 8.514 -62.926 
-13.350 11.562 -72.946 
-13.319 11.672 -72.872 
10.745 -1.446 -72.585 
10.909 -1.306 -72.624 
5.889 1.657 -66.817 
6.073 1.911 -66.889 
-3.217 -5.639 -69.170 
-3.034 -5.407 -69.116 
-1.211 7.570 -64.641 
-1.242 7.761 -64.573 
-3.427 6.894 -61.930 
-3.419 7.166 -61.896 
-8.174 -7.572 -67.552 
-8.031 -7.456 -67.741 
-6.418 -8.333 -64.348 
-6.238 -8.219 -64.436 
-9.765 -0.171 -66.832 
-9.616 0.160 -67.163 
9.613 -2.853 -69.426 
9.715 -2.740 -69.574 
2.503 3.827 -62.641 
2.601 4.098 -62.673 
12.134 -6.366 -65.886 
12.252 -6.192 -65.943 
10.180 4.650 -71.347 
10.314 4.784 -71.580 
-10.350 -7.965 -66.755 
-10.133 -7.801 -66.937 
9.107 6.875 -61.428 
9.181 7.121 -61.527 
-8.071 -12.352 -67.974 
-7.925 -12.265 -68.074 
-9.886 -2.809 -73.044 
-9.787 -2.553 -73.122 
12.500 -1.748 -68.410 
12.421 -1.607 -68.353 
-7.881 10.156 -66.546 
-7.879 10.353 -66.435 
3.053 0.498 -70.411 
3.251 0.786 -70.676 
9.580 -2.079 -64.913 
9.701 -1.809 -64.952 
-6.837 -5.113 -65.817 
-6.617 -5.006 -66.284 
7.435 5.545 -66.455 
7.497 5.816 -66.553 
15.490 3.225 -68.531 
15.591 3.336 -68.557 
11.283 -5.026 -70.125 
11.451 -4.966 -70.315 
-6.985 7.018 -64.736 
-7.000 7.246 -64.676 
-14.222 -9.871 -69.249 
-14.075 -9.865 -69.380 
-3.847 -7.815 -67.691 
-3.733 -7.827 -67.923 
5.171 -2.159 -74.984 
5.273 -1.954 -75.111 
-13.020 -2.569 -71.739 
-13.004 -2.341 -71.836 
10.129 -4.073 -67.961 
10.316 -3.885 -68.191 
3.547 10.467 -71.644 
3.484 10.733 -71.664 
-9.875 13.012 -65.746 
-9.834 13.198 -65.703 
-13.319 -5.507 -73.338 
-13.234 -5.347 -73.575 
16.395 -4.219 -70.193 
16.535 -4.125 -70.175 
-0.527 5.508 -66.630 
-0.534 5.657 -66.558 
-8.540 -7.913 -68.039 
-8.496 -7.783 -68.155 
-8.163 2.291 -74.655 
-8.093 2.441 -74.727 
-2.549 -8.978 -62.641 
-2.254 -9.022 -62.679 
-5.165 -11.575 -70.288 
-5.103 -11.435 -70.436 
-0.682 4.011 -61.358 
-0.535 4.281 -61.451 
6.983 -0.749 -72.263 
7.097 -0.477 -72.627 
-10.038 -8.618 -68.235 
-9.984 -8.534 -68.367 
0.593 9.383 -63.455 
0.613 9.517 -63.377 
-3.626 4.960 -62.161 
-3.670 5.206 -62.163 
8.195 5.186 -65.586 
8.273 5.484 -65.631 
-10.320 8.097 -64.552 
-10.356 8.405 -64.547 
-1.419 -4.234 -62.754 
-1.140 -4.106 -63.307 
-9.752 1.634 -72.382 
-9.766 1.806 -72.609 
5.942 -1.767 -74.597 
6.039 -1.561 -74.769 
-3.613 2.830 -69.497 
-3.486 3.078 -69.515 
9.823 -1.230 -67.473 
9.855 -0.982 -67.541 
-3.928 10.248 -61.682 
-3.941 10.408 -61.457 
0.666 0.106 -63.998 
0.785 0.134 -64.259 
3.896 2.206 -64.844 
3.982 2.330 -64.901 
-2.071 5.996 -62.095 
-2.036 6.262 -62.175 
-0.482 1.310 -76.998 
-0.480 1.465 -77.016 
0.159 -10.276 -65.447 
0.361 -10.252 -65.551 
-15.131 8.516 -70.153 
-15.191 8.875 -70.161 
10.272 -5.901 -65.115 
10.421 -5.656 -65.310 
-14.036 -3.317 -70.718 
-13.744 -3.287 -70.704 
3.281 5.477 -66.821 
3.321 5.574 -66.918 
5.994 -8.190 -68.255 
6.104 -8.165 -68.613 
12.050 9.305 -68.809 
12.096 9.137 -68.922 
-6.575 -0.118 -75.660 
-6.417 0.000 -75.832 
-1.241 12.542 -64.906 
-1.230 12.743 -64.791 
-12.850 -1.994 -67.623 
-12.740 -1.607 -67.837 
-12.448 4.314 -68.460 
-12.300 4.590 -68.552 
-11.723 3.963 -62.221 
-11.738 4.096 -62.427 
0.667 8.241 -68.281 
0.689 8.460 -68.205 
-8.328 5.250 -68.740 
-8.243 5.594 -68.887 
7.145 -10.743 -68.287 
7.203 -10.665 -68.667 
-14.197 -2.073 -71.432 
-14.199 -1.833 -71.511 
0.106 -9.762 -68.303 
0.273 -9.672 -68.493 
4.979 -0.312 -70.221 
5.095 -0.145 -70.428 
-10.263 -3.169 -63.003 
-10.103 -3.066 -63.451 
0.331 -10.080 -74.395 
0.427 -9.959 -74.378 
-3.660 7.129 -64.348 
-3.724 7.372 -64.274 
12.777 7.054 -66.276 
12.908 7.127 -66.384 
6.919 -3.427 -69.913 
7.058 -3.235 -70.150 
-7.858 11.561 -60.512 
-7.907 11.741 -60.387 
-8.594 9.952 -71.193 
-8.566 10.044 -71.125 
-14.164 12.443 -68.965 
-14.321 12.669 -68.988 
16.282 8.334 -71.790 
16.464 8.535 -72.030 
-3.538 -10.708 -64.494 
-3.481 -10.628 -64.555 
-7.869 2.006 -63.614 
-7.929 2.130 -63.749 
6.332 5.937 -63.700 
6.347 6.130 -63.729 
-13.334 11.963 -72.066 
-13.328 12.081 -72.067 
-13.664 -1.935 -70.632 
-13.456 -1.722 -70.838 
-13.348 -1.156 -65.942 
-13.266 -0.829 -66.443 
4.338 8.218 -76.428 
4.450 8.415 -76.608 
-12.394 -6.105 -73.296 
-12.329 -5.992 -73.558 
-10.433 1.161 -73.047 
-10.439 1.373 -73.263 
14.222 9.896 -68.069 
14.323 9.960 -68.129 
5.227 2.139 -71.230 
5.348 2.359 -71.478 
12.627 5.917 -70.294 
12.773 5.969 -70.414 
7.869 9.790 -62.835 
7.899 10.033 -62.986 
-11.252 -7.707 -61.986 
-11.143 -7.549 -62.311 
1.323 -4.406 -66.337 
1.497 -4.157 -66.445 
-11.547 5.917 -72.663 
-11.429 6.150 -72.603 
1.280 -4.009 -70.703 
1.516 -3.795 -70.780 
-14.296 4.094 -69.079 
-14.324 4.321 -69.243 
0.405 -11.623 -68.337 
0.596 -11.520 -68.378 
[...]
POINT_DATA 1042 
SCALARS Umean double 1 
LOOKUP_TABLE default
0.12358 
0.12358 
0.14671 
0.14671 
0.17387 
0.17387 
0.10148 
0.10148 
0.13399 
0.13399 
0.11886 
0.11886 
0.12592 
0.12592 
0.12303 
0.12303 
0.04402 
0.04402 
0.14689 
0.14689 
0.11176 
0.11176 
0.11691 
0.11691 
0.15038 
0.15038 
0.14803 
0.14803 
0.08555 
0.08555 
0.18536 
0.18536 
0.11828 
0.11828 
0.16438 
0.16438 
0.09019 
0.09019 
0.17631 
0.17631 
0.04124 
0.04124 
0.05573 
0.05573 
0.12198 
0.12198 
0.15027 
0.15027 
0.08865 
0.08865 
0.19654 
0.19654 
0.07799 
0.07799 
0.13804 
0.13804 
0.08369 
0.08369 
0.12732 
0.12732 
0.14754 
0.14754 
0.18549 
0.18549 
0.18111 
0.18111 
0.20130 
0.20130 
0.17323 
0.17323 
0.13130 
0.13130 
0.19884 
0.19884 
0.13831 
0.13831 
0.08033 
0.08033 
0.10499 
0.10499 
0.09938 
0.09938 
0.08619 
0.08619 
0.11704 
0.11704 
0.10011 
0.10011 
0.10377 
0.10377 
0.10421 
0.10421 
0.14646 
0.14646 
0.09167 
0.09167 
0.15960 
0.15960 
0.12015 
0.12015 
0.12675 
0.12675 
0.12739 
0.12739 
0.08761 
0.08761 
0.10810 
0.10810 
0.12863 
0.12863 
0.09958 
0.09958 
0.12775 
0.12775 
0.16632 
0.16632 
0.11580 
0.11580 
0.25112 
0.25112 
0.11977 
0.11977 
0.11454 
0.11454 
0.24818 
0.24818 
0.14942 
0.14942 
0.13883 
0.13883 
0.24745 
0.24745 
0.09948 
0.09948 
0.08158 
0.08158 
0.12647 
0.12647 
0.10033 
0.10033 
0.06970 
0.06970 
0.24915 
0.24915 
0.11859 
0.11859 
0.05396 
0.05396 
0.15005 
0.15005 
0.16962 
0.16962 
0.17130 
0.17130 
0.13418 
0.13418 
0.12691 
0.12691 
0.09833 
0.09833 
0.13917 
0.13917 
0.13184 
0.13184 
0.18156 
0.18156 
0.17120 
0.17120 
0.13927 
0.13927 
0.15676 
0.15676 
0.15225 
0.15225 
0.07416 
0.07416 
0.15765 
0.15765 
0.08464 
0.08464 
0.19417 
0.19417 
0.12772 
0.12772 
0.20906 
0.20906 
0.20670 
0.20670 
0.09811 
0.09811 
0.11945 
0.11945 
0.13799 
0.13799 
0.05247 
0.05247 
0.05658 
0.05658 
0.08260 
0.08260 
0.08903 
0.08903 
0.08463 
0.08463 
0.08481 
0.08481 
0.15678 
0.15678 
0.18748 
0.18748 
0.08920 
0.08920 
0.09843 
0.09843 
0.13958 
0.13958 
0.14007 
0.14007 
0.22697 
0.22697 
0.30232 
0.30232 
0.16842 
0.16842 
0.16013 
0.16013 
0.16395 
0.16395 
0.15644 
0.15644 
0.17280 
0.17280 
0.15926 
0.15926 
0.20418 
0.20418 
0.06808 
0.06808 
0.10956 
0.10956 
0.16090 
0.16090 
0.15019 
0.15019 
0.10255 
0.10255 
0.13712 
0.13712 
0.13193 
0.13193 
0.11526 
0.11526 
0.24562 
0.24562 
0.10616 
0.10616 
0.14497 
0.14497 
0.10891 
0.10891 
0.15017 
0.15017 
0.16364 
0.16364 
0.13765 
0.13765 
0.09860 
0.09860 
0.14267 
0.14267 
0.08569 
0.08569 
0.11306 
0.11306 
0.21930 
0.21930 
0.14922 
0.14922 
0.26360 
0.26360 
0.14738 
0.14738 
0.07615 
0.07615 
0.13031 
0.13031 
0.11812 
0.11812 
0.09850 
0.09850 
0.12939 
0.12939 
0.13092 
0.13092 
0.12415 
0.12415 
0.17551 
0.17551 
0.13704 
0.13704 
0.09763 
0.09763 
0.14916 
0.14916 
0.08479 
0.08479 
0.08282 
0.08282 
0.08985 
0.08985 
0.09026 
0.09026 
0.15034 
0.15034 
0.10648 
0.10648 
0.16059 
0.16059 
0.23424 
0.23424 
0.08276 
0.08276 
0.07817 
0.07817 
0.12496 
0.12496 
0.15565 
0.15565 
0.15507 
0.15507 
0.31624 
0.31624 
0.14257 
0.14257 
0.14268 
0.14268 
0.13960 
0.13960 
0.12957 
0.12957 
0.13820 
0.13820 
0.14411 
0.14411 
0.08066 
0.08066 
0.13998 
0.13998 
0.07803 
0.07803 
0.11423 
0.11423 
0.18203 
0.18203 
0.17339 
0.17339 
0.14694 
0.14694 
0.07145 
0.07145 
0.18768 
0.18768 
0.10381 
0.10381 
0.13084 
0.13084 
0.11592 
0.11592 
0.22785 
0.22785 
0.16321 
0.16321 
0.12283 
0.12283 
0.11643 
0.11643 
0.19181 
0.19181 
0.19612 
0.19612 
0.12634 
0.12634 
0.13425 
0.13425 
0.14508 
0.14508 
0.24337 
0.24337 
0.07769 
0.07769 
0.13098 
0.13098 
0.09240 
0.09240 
0.16760 
0.16760 
0.11228 
0.11228 
0.05889 
0.05889 
0.13807 
0.13807 
0.18106 
0.18106 
0.05781 
0.05781 
0.09644 
0.09644 
0.09787 
0.09787 
0.05908 
0.05908 
0.18102 
0.18102 
0.30193 
0.30193 
0.14470 
0.14470 
0.14632 
0.14632 
0.15136 
0.15136 
0.06689 
0.06689 
0.17645 
0.17645 
0.09801 
0.09801 
0.14383 
0.14383 
0.18873 
0.18873 
0.16120 
0.16120 
0.13399 
0.13399 
0.16388 
0.16388 
0.14072 
0.14072 
0.11042 
0.11042 
0.05500 
0.05500 
0.11442 
0.11442 
0.06784 
0.06784 
0.28303 
0.28303 
0.06596 
0.06596 
0.27293 
0.27293 
0.10577 
0.10577 
0.11563 
0.11563 
0.09254 
0.09254 
0.09792 
0.09792 
0.11860 
0.11860 
0.02966 
0.02966 
0.22614 
0.22614 
0.19245 
0.19245 
0.12990 
0.12990 
0.10778 
0.10778 
0.21134 
0.21134 
0.11654 
0.11654 
0.07580 
0.07580 
0.10384 
0.10384 
0.09578 
0.09578 
0.08266 
0.08266 
0.10883 
0.10883 
0.04382 
0.04382 
0.18416 
0.18416 
0.24299 
0.24299 
0.10863 
0.10863 
0.09577 
0.09577 
0.02162 
0.02162 
0.16728 
0.16728 
0.10887 
0.10887 
0.14279 
0.14279 
0.05672 
0.05672 
0.10644 
0.10644 
0.12019 
0.12019 
0.15409 
0.15409 
0.15400 
0.15400 
0.14352 
0.14352 
0.12200 
0.12200 
0.06425 
0.06425 
0.10324 
0.10324 
0.11024 
0.11024 
0.18118 
0.18118 
0.15476 
0.15476 
0.09683 
0.09683 
0.11043 
0.11043 
0.13512 
0.13512 
0.13368 
0.13368 
0.20391 
0.20391 
0.13679 
0.13679 
0.07022 
0.07022 
0.07524 
0.07524 
0.12897 
0.12897 
0.14812 
0.14812 
0.11303 
0.11303 
0.08328 
0.08328 
0.09679 
0.09679 
0.06084 
0.06084 
0.04909 
0.04909 
0.15727 
0.15727 
0.15512 
0.15512 
0.13382 
0.13382 
0.26213 
0.26213 
0.14427 
0.14427 
0.02248 
0.02248 
0.10411 
0.10411 
0.09368 
0.09368 
0.06652 
0.06652 
0.09800 
0.09800 
0.16426 
0.16426 
0.15046 
0.15046 
0.06930 
0.06930 
0.10197 
0.10197 
0.06311 
0.06311 
0.14872 
0.14872 
0.09781 
0.09781 
0.14437 
0.14437 
0.12539 
0.12539 
0.09541 
0.09541 
0.10485 
0.10485 
0.16012 
0.16012 
0.12810 
0.12810 
0.18053 
0.18053 
0.15797 
0.15797 
0.17714 
0.17714 
0.18997 
0.18997 
0.18422 
0.18422 
0.09192 
0.09192 
0.16677 
0.16677 
0.24889 
0.24889 
0.08738 
0.08738 
0.12400 
0.12400 
0.09700 
0.09700 
0.18889 
0.18889 
0.10585 
0.10585 
0.12279 
0.12279 
0.08721 
0.08721 
0.12478 
0.12478 
0.20315 
0.20315 
0.09451 
0.09451 
0.15730 
0.15730 
0.11143 
0.11143 
0.07919 
0.07919 
0.07720 
0.07720 
0.08615 
0.08615 
0.25108 
0.25108 
0.12769 
0.12769 
0.13547 
0.13547 
0.17325 
0.17325 
0.09697 
0.09697 
0.25157 
0.25157 
0.13626 
0.13626 
0.13089 
0.13089 
0.09591 
0.09591 
0.11045 
0.11045 
0.19720 
0.19720 
0.13526 
0.13526 
0.09127 
0.09127 
0.12648 
0.12648 
0.05682 
0.05682 
0.30899 
0.30899 
0.16716 
0.16716 
0.16611 
0.16611 
0.08602 
0.08602 
0.15472 
0.15472 
0.11903 
0.11903 
0.15410 
0.15410 
0.11194 
0.11194 
0.11242 
0.11242 
0.19553 
0.19553 
0.10479 
0.10479 
0.11208 
0.11208 
0.09080 
0.09080 
0.14806 
0.14806 
0.15473 
0.15473 
0.26452 
0.26452 
0.04793 
0.04793 
0.14382 
0.14382 
0.12099 
0.12099 
0.07286 
0.07286 
0.14966 
0.14966 
0.04805 
0.04805 
0.09963 
0.09963 
0.12282 
0.12282 
0.09751 
0.09751 
0.06979 
0.06979 
0.08158 
0.08158 
0.13379 
0.13379 
0.15766 
0.15766 
0.09037 
0.09037 
0.18359 
0.18359 
0.19867 
0.19867 
0.20364 
0.20364 
0.12606 
0.12606 
0.05281 
0.05281 
0.08334 
0.08334 
0.25706 
0.25706 
0.06930 
0.06930 
0.13826 
0.13826 
0.14925 
0.14925 
0.17664 
0.17664 
0.07019 
0.07019 
0.15131 
0.15131 
0.18481 
0.18481 
0.10632 
0.10632 
0.17273 
0.17273 
0.07981 
0.07981 
0.07679 
0.07679 
0.14742 
0.14742 
0.10121 
0.10121 
0.05869 
0.05869 
0.16096 
0.16096 
0.18770 
0.18770 
0.13599 
0.13599 
0.19009 
0.19009 
0.12481 
0.12481 
0.12843 
0.12843 
0.12131 
0.12131 
0.21755 
0.21755 
0.12308 
0.12308 
0.07196 
0.07196 
0.11847 
0.11847 
0.19674 
0.19674 
0.29927 
0.29927 
0.25467 
0.25467 
0.14715 
0.14715 
0.13063 
0.13063 
0.09911 
0.09911 
0.14331 
0.14331 
0.19043 
0.19043 
0.15330 
0.15330 
0.13461 
0.13461 
0.06161 
0.06161 
0.09158 
0.09158 
0.21396 
0.21396 
0.10849 
0.10849 
0.11038 
0.11038 
0.15983 
0.15983 
0.09952 
0.09952 
0.04470 
0.04470 
0.12979 
0.12979 
0.14787 
0.14787 
0.07114 
0.07114 
0.10849 
0.10849 
0.11354 
0.11354 
0.10740 
0.10740 
0.11228 
0.11228 
0.15592 
0.15592 
0.12882 
0.12882 
0.23667 
0.23667 
0.10462 
0.10462 
0.15481 
0.15481 
0.07161 
0.07161 
0.05512 
0.05512 
0.15973 
0.15973 
0.07702 
0.07702 
0.11235 
0.11235 
0.10168 
0.10168 
0.11855 
0.11855 
0.12382 
0.12382 
0.15643 
0.15643 
0.08108 
0.08108 
0.13020 
0.13020 
0.16401 
0.16401 
0.13755 
0.13755 
0.25061 
0.25061 
0.06621 
0.06621 
0.26980 
0.26980 
0.07975 
0.07975 
0.21574 
0.21574 
0.15830 
0.15830 
0.04943 
0.04943 
0.11269 
0.11269 
0.12848 
0.12848 
0.12679 
0.12679 
0.05271 
0.05271 
0.19317 
0.19317 
0.06180 
0.06180 
0.11143 
0.11143 
0.12824 
0.12824 
0.20080 
0.20080 
0.11638 
0.11638 
0.06517 
0.06517 
0.13590 
0.13590 
0.16774 
0.16774 
0.09344 
0.09344 
0.15724 
0.15724 
0.18621 
0.18621 
0.10480 
0.10480 
0.07969 
0.07969 
0.08434 
0.08434 
0.24843 
0.24843 
0.13542 
0.13542 
0.14999 
0.14999 
0.09720 
0.09720 
0.06658 
0.06658 
0.15775 
0.15775 
0.20721 
0.20721 
0.05589 
0.05589 
0.08215 
0.08215 
0.13903 
0.13903 
0.10674 
0.10674 
0.15376 
0.15376 
0.12278 
0.12278 
0.12629 
0.12629 
0.10955 
0.10955 
0.18189 
0.18189 
0.09577 
0.09577 
0.09720 
0.09720 
0.13335 
0.13335 
0.35933 
0.35933 
0.16755 
0.16755 
0.20635 
0.20635 
0.10605 
0.10605 
0.10764 
0.10764 
0.04920 
0.04920 
0.12815 
0.12815 
0.12774 
0.12774 
0.11197 
0.11197 
0.12314 
0.12314 
0.09692 
0.09692 
0.10365 
0.10365 
0.06455 
0.06455 
0.08829 
0.08829 
0.09824 
0.09824 
0.14835 
0.14835 
0.14548 
0.14548 
0.18080 
0.18080 
0.15802 
0.15802 
0.22051 
0.22051 
0.05159 
0.05159 
0.17644 
0.17644 
0.12014 
0.12014 
0.06226 
0.06226 
0.17611 
0.17611 
0.12909 
0.12909 
0.15798 
0.15798 
0.07670 
0.07670 
0.05541 
0.05541 
0.08897 
0.08897 
SCALARS Umean_X double 1 
LOOKUP_TABLE default
0.07200 
0.07200 
0.05350 
0.05350 
0.03100 
0.03100 
0.02100 
0.02100 
0.06150 
0.06150 
0.03000 
0.03000 
0.05000 
0.05000 
0.04800 
0.04800 
-0.04100 
-0.04100 
0.04800 
0.04800 
0.06200 
0.06200 
0.06150 
0.06150 
0.01200 
0.01200 
0.03750 
0.03750 
0.02250 
0.02250 
0.06200 
0.06200 
-0.01450 
-0.01450 
0.05400 
0.05400 
0.05550 
0.05550 
0.08250 
0.08250 
0.00400 
0.00400 
-0.02500 
-0.02500 
0.00350 
0.00350 
0.04200 
0.04200 
0.05750 
0.05750 
0.04450 
0.04450 
0.01400 
0.01400 
0.06900 
0.06900 
0.02900 
0.02900 
0.05200 
0.05200 
0.08750 
0.08750 
0.05550 
0.05550 
-0.00500 
-0.00500 
0.11800 
0.11800 
0.05650 
0.05650 
0.05550 
0.05550 
0.02350 
0.02350 
0.01100 
0.01100 
0.04450 
0.04450 
-0.04250 
-0.04250 
0.00650 
0.00650 
-0.01200 
-0.01200 
0.01850 
0.01850 
-0.04300 
-0.04300 
0.01350 
0.01350 
0.01000 
0.01000 
0.08000 
0.08000 
0.07650 
0.07650 
0.08650 
0.08650 
0.04100 
0.04100 
0.03900 
0.03900 
0.03300 
0.03300 
0.02300 
0.02300 
0.03200 
0.03200 
0.08800 
0.08800 
-0.02400 
-0.02400 
0.09050 
0.09050 
0.03450 
0.03450 
0.01500 
0.01500 
0.04500 
0.04500 
0.03100 
0.03100 
-0.03150 
-0.03150 
0.09150 
0.09150 
0.00250 
0.00250 
0.01250 
0.01250 
0.11100 
0.11100 
0.06400 
0.06400 
-0.01850 
-0.01850 
0.02250 
0.02250 
0.05400 
0.05400 
0.04850 
0.04850 
0.12300 
0.12300 
0.10050 
0.10050 
-0.02400 
-0.02400 
0.09550 
0.09550 
0.12850 
0.12850 
0.06000 
0.06000 
0.10700 
0.10700 
0.06000 
0.06000 
0.01050 
0.01050 
0.00250 
0.00250 
0.01250 
0.01250 
0.05750 
0.05750 
0.06500 
0.06500 
0.09450 
0.09450 
0.12650 
0.12650 
0.10900 
0.10900 
-0.00000 
-0.00000 
0.07950 
0.07950 
-0.02850 
-0.02850 
0.06800 
0.06800 
0.04050 
0.04050 
0.06250 
0.06250 
0.05500 
0.05500 
0.00450 
0.00450 
0.10600 
0.10600 
0.08300 
0.08300 
0.04300 
0.04300 
-0.00100 
-0.00100 
-0.01150 
-0.01150 
0.04000 
0.04000 
0.04650 
0.04650 
0.08250 
0.08250 
0.10400 
0.10400 
0.04400 
0.04400 
-0.01000 
-0.01000 
0.02750 
0.02750 
0.02750 
0.02750 
0.06000 
0.06000 
0.15100 
0.15100 
0.11350 
0.11350 
0.08850 
0.08850 
0.07700 
0.07700 
0.14000 
0.14000 
0.05100 
0.05100 
0.05000 
0.05000 
0.04050 
0.04050 
-0.00050 
-0.00050 
0.01550 
0.01550 
0.08200 
0.08200 
0.09200 
0.09200 
0.09150 
0.09150 
-0.01550 
-0.01550 
0.00400 
0.00400 
0.07150 
0.07150 
0.09000 
0.09000 
0.07450 
0.07450 
0.05100 
0.05100 
0.04900 
0.04900 
0.05900 
0.05900 
0.06700 
0.06700 
0.10850 
0.10850 
0.03700 
0.03700 
0.07300 
0.07300 
0.04950 
0.04950 
-0.03950 
-0.03950 
0.00100 
0.00100 
0.09900 
0.09900 
0.06050 
0.06050 
0.11000 
0.11000 
0.03100 
0.03100 
0.05050 
0.05050 
0.08400 
0.08400 
-0.00750 
-0.00750 
0.07350 
0.07350 
0.05700 
0.05700 
0.05100 
0.05100 
0.00800 
0.00800 
0.09350 
0.09350 
-0.03150 
-0.03150 
0.02050 
0.02050 
0.04250 
0.04250 
0.07000 
0.07000 
-0.00350 
-0.00350 
0.02200 
0.02200 
0.03500 
0.03500 
0.14750 
0.14750 
0.03100 
0.03100 
0.07350 
0.07350 
0.05700 
0.05700 
0.02700 
0.02700 
0.01000 
0.01000 
-0.02200 
-0.02200 
0.03900 
0.03900 
-0.01800 
-0.01800 
0.13950 
0.13950 
-0.00700 
-0.00700 
0.04850 
0.04850 
0.06350 
0.06350 
0.01600 
0.01600 
-0.00650 
-0.00650 
0.05950 
0.05950 
0.04300 
0.04300 
0.01750 
0.01750 
0.00100 
0.00100 
0.10100 
0.10100 
-0.03000 
-0.03000 
0.07450 
0.07450 
0.14600 
0.14600 
0.02000 
0.02000 
0.05500 
0.05500 
0.02300 
0.02300 
0.07900 
0.07900 
0.00550 
0.00550 
0.05500 
0.05500 
0.07400 
0.07400 
-0.00750 
-0.00750 
0.01100 
0.01100 
0.04250 
0.04250 
0.02900 
0.02900 
-0.00100 
-0.00100 
0.08350 
0.08350 
0.05800 
0.05800 
0.08000 
0.08000 
0.04800 
0.04800 
-0.03200 
-0.03200 
0.06550 
0.06550 
0.06950 
0.06950 
-0.02450 
-0.02450 
0.01400 
0.01400 
-0.07850 
-0.07850 
0.09100 
0.09100 
0.02850 
0.02850 
-0.03000 
-0.03000 
0.00750 
0.00750 
0.00300 
0.00300 
0.10400 
0.10400 
0.04100 
0.04100 
0.05600 
0.05600 
0.03250 
0.03250 
-0.00300 
-0.00300 
0.05050 
0.05050 
0.06050 
0.06050 
0.07300 
0.07300 
0.01500 
0.01500 
0.05450 
0.05450 
0.08700 
0.08700 
0.05900 
0.05900 
0.11800 
0.11800 
-0.01400 
-0.01400 
0.09550 
0.09550 
0.02450 
0.02450 
0.06900 
0.06900 
-0.03750 
-0.03750 
0.15150 
0.15150 
0.00550 
0.00550 
0.08550 
0.08550 
-0.00750 
-0.00750 
0.05100 
0.05100 
0.02150 
0.02150 
0.04050 
0.04050 
0.02300 
0.02300 
0.01050 
0.01050 
-0.00450 
-0.00450 
0.07150 
0.07150 
0.06450 
0.06450 
0.03400 
0.03400 
0.12500 
0.12500 
0.05600 
0.05600 
0.03900 
0.03900 
0.04550 
0.04550 
-0.08350 
-0.08350 
0.03650 
0.03650 
0.07750 
0.07750 
0.01200 
0.01200 
-0.03300 
-0.03300 
0.14000 
0.14000 
0.04650 
0.04650 
0.00400 
0.00400 
-0.00950 
-0.00950 
-0.01600 
-0.01600 
0.06550 
0.06550 
0.12250 
0.12250 
0.03400 
0.03400 
-0.06400 
-0.06400 
0.01900 
0.01900 
0.08000 
0.08000 
0.08200 
0.08200 
0.05650 
0.05650 
0.11450 
0.11450 
-0.01850 
-0.01850 
0.04700 
0.04700 
-0.06500 
-0.06500 
-0.08000 
-0.08000 
0.03650 
0.03650 
0.07200 
0.07200 
0.02150 
0.02150 
0.07600 
0.07600 
0.02950 
0.02950 
0.14600 
0.14600 
0.05550 
0.05550 
-0.00000 
-0.00000 
0.06000 
0.06000 
0.05000 
0.05000 
0.06000 
0.06000 
0.05400 
0.05400 
0.00300 
0.00300 
0.07750 
0.07750 
0.03150 
0.03150 
-0.02700 
-0.02700 
-0.01400 
-0.01400 
-0.02200 
-0.02200 
0.03800 
0.03800 
0.12950 
0.12950 
0.10750 
0.10750 
0.00350 
0.00350 
0.02100 
0.02100 
0.02500 
0.02500 
-0.00750 
-0.00750 
0.07200 
0.07200 
0.00450 
0.00450 
0.02300 
0.02300 
0.06500 
0.06500 
0.08750 
0.08750 
-0.02650 
-0.02650 
0.04700 
0.04700 
-0.01800 
-0.01800 
0.12000 
0.12000 
0.00300 
0.00300 
0.09450 
0.09450 
-0.07800 
-0.07800 
0.10650 
0.10650 
0.01700 
0.01700 
0.04550 
0.04550 
0.04400 
0.04400 
0.07600 
0.07600 
0.02950 
0.02950 
0.02850 
0.02850 
-0.01450 
-0.01450 
0.03750 
0.03750 
0.01450 
0.01450 
0.05150 
0.05150 
0.06750 
0.06750 
0.04500 
0.04500 
0.04250 
0.04250 
-0.00000 
-0.00000 
0.11400 
0.11400 
-0.06450 
-0.06450 
0.01050 
0.01050 
0.06200 
0.06200 
0.04250 
0.04250 
0.08150 
0.08150 
0.06900 
0.06900 
-0.04550 
-0.04550 
0.04150 
0.04150 
-0.03450 
-0.03450 
0.05150 
0.05150 
0.02550 
0.02550 
0.09400 
0.09400 
0.03400 
0.03400 
-0.03050 
-0.03050 
0.18300 
0.18300 
0.00600 
0.00600 
0.08150 
0.08150 
0.02950 
0.02950 
0.06300 
0.06300 
0.16200 
0.16200 
-0.00850 
-0.00850 
0.04550 
0.04550 
0.03650 
0.03650 
-0.00600 
-0.00600 
0.11000 
0.11000 
0.12450 
0.12450 
0.07400 
0.07400 
0.03800 
0.03800 
0.01600 
0.01600 
-0.10100 
-0.10100 
0.05200 
0.05200 
0.02300 
0.02300 
0.04850 
0.04850 
0.09300 
0.09300 
-0.02450 
-0.02450 
0.09900 
0.09900 
-0.03150 
-0.03150 
0.05800 
0.05800 
0.04450 
0.04450 
0.15450 
0.15450 
0.04000 
0.04000 
0.10250 
0.10250 
0.01450 
0.01450 
-0.01250 
-0.01250 
0.01400 
0.01400 
0.04000 
0.04000 
0.09500 
0.09500 
0.03450 
0.03450 
-0.03050 
-0.03050 
0.03000 
0.03000 
0.07250 
0.07250 
0.05300 
0.05300 
0.02450 
0.02450 
0.04550 
0.04550 
0.07050 
0.07050 
0.04600 
0.04600 
0.11800 
0.11800 
0.05100 
0.05100 
0.00650 
0.00650 
0.07150 
0.07150 
0.10150 
0.10150 
-0.05500 
-0.05500 
0.01950 
0.01950 
0.04750 
0.04750 
-0.06450 
-0.06450 
0.00650 
0.00650 
0.04850 
0.04850 
0.12150 
0.12150 
0.09350 
0.09350 
0.09250 
0.09250 
0.07350 
0.07350 
0.02050 
0.02050 
0.01500 
0.01500 
0.06750 
0.06750 
0.01000 
0.01000 
0.08150 
0.08150 
0.00900 
0.00900 
0.10150 
0.10150 
0.11700 
0.11700 
0.07100 
0.07100 
-0.00300 
-0.00300 
0.10100 
0.10100 
0.14950 
0.14950 
-0.00050 
-0.00050 
0.01300 
0.01300 
0.10000 
0.10000 
-0.00200 
-0.00200 
0.11700 
0.11700 
0.19650 
0.19650 
0.08550 
0.08550 
0.02450 
0.02450 
-0.00000 
-0.00000 
0.08200 
0.08200 
0.12150 
0.12150 
0.05550 
0.05550 
0.13050 
0.13050 
0.06050 
0.06050 
-0.03400 
-0.03400 
0.08150 
0.08150 
0.07600 
0.07600 
0.03000 
0.03000 
-0.00800 
-0.00800 
0.07600 
0.07600 
0.02150 
0.02150 
0.04300 
0.04300 
0.07200 
0.07200 
-0.01950 
-0.01950 
0.07950 
0.07950 
0.01350 
0.01350 
0.01100 
0.01100 
0.08050 
0.08050 
0.06300 
0.06300 
0.02150 
0.02150 
0.10550 
0.10550 
0.07150 
0.07150 
0.10450 
0.10450 
0.04150 
0.04150 
0.00800 
0.00800 
0.02550 
0.02550 
0.07000 
0.07000 
-0.00350 
-0.00350 
0.02400 
0.02400 
0.02450 
0.02450 
0.04200 
0.04200 
0.10500 
0.10500 
0.04250 
0.04250 
0.05750 
0.05750 
0.11750 
0.11750 
0.00350 
0.00350 
0.17100 
0.17100 
0.03100 
0.03100 
0.06550 
0.06550 
0.01550 
0.01550 
0.06400 
0.06400 
0.10800 
0.10800 
0.02550 
0.02550 
-0.02250 
-0.02250 
0.02500 
0.02500 
0.00750 
0.00750 
0.03450 
0.03450 
0.02400 
0.02400 
0.02750 
0.02750 
0.05500 
0.05500 
0.01050 
0.01050 
0.05400 
0.05400 
0.05400 
0.05400 
0.05250 
0.05250 
0.01950 
0.01950 
0.10150 
0.10150 
-0.02300 
-0.02300 
0.06100 
0.06100 
0.07700 
0.07700 
0.04100 
0.04100 
0.01700 
0.01700 
0.07500 
0.07500 
0.13050 
0.13050 
0.09550 
0.09550 
-0.02200 
-0.02200 
0.08100 
0.08100 
0.03700 
0.03700 
0.02000 
0.02000 
0.12300 
0.12300 
0.03050 
0.03050 
0.00300 
0.00300 
0.04050 
0.04050 
0.05150 
0.05150 
-0.00400 
-0.00400 
0.08000 
0.08000 
0.00700 
0.00700 
0.03350 
0.03350 
0.00450 
0.00450 
0.04900 
0.04900 
0.01050 
0.01050 
0.11700 
0.11700 
0.10900 
0.10900 
0.04450 
0.04450 
-0.01750 
-0.01750 
0.02500 
0.02500 
0.03250 
0.03250 
-0.00650 
-0.00650 
0.08600 
0.08600 
-0.02950 
-0.02950 
0.01550 
0.01550 
0.10450 
0.10450 
0.02700 
0.02700 
-0.06000 
-0.06000 
0.00150 
0.00150 
0.04350 
0.04350 
0.04550 
0.04550 
0.10900 
0.10900 
-0.01200 
-0.01200 
0.08100 
0.08100 
-0.02350 
-0.02350 
0.06400 
0.06400 
0.04650 
0.04650 
0.04400 
0.04400 
-0.03750 
-0.03750 
0.02950 
0.02950 
-0.00850 
-0.00850 
0.08000 
0.08000 
0.00450 
0.00450 
-0.04150 
-0.04150 
0.01200 
0.01200 
0.04500 
0.04500 
SCALARS Umean_Y double 1 
LOOKUP_TABLE default
0.09100 
0.09100 
0.08100 
0.08100 
0.16250 
0.16250 
0.09900 
0.09900 
0.06300 
0.06300 
0.11500 
0.11500 
0.11400 
0.11400 
0.11150 
0.11150 
-0.00100 
-0.00100 
0.07850 
0.07850 
0.06650 
0.06650 
0.07300 
0.07300 
0.12950 
0.12950 
0.13400 
0.13400 
0.07850 
0.07850 
0.06150 
0.06150 
0.11600 
0.11600 
0.15500 
0.15500 
0.07100 
0.07100 
0.11950 
0.11950 
-0.04100 
-0.04100 
0.02900 
0.02900 
0.12100 
0.12100 
0.14400 
0.14400 
0.06700 
0.06700 
0.16200 
0.16200 
0.06250 
0.06250 
0.10950 
0.10950 
0.07750 
0.07750 
0.09600 
0.09600 
0.08450 
0.08450 
0.14500 
0.14500 
0.18050 
0.18050 
0.13500 
0.13500 
0.11900 
0.11900 
0.11600 
0.11600 
0.11500 
0.11500 
0.13100 
0.13100 
0.06050 
0.06050 
0.09600 
0.09600 
0.09850 
0.09850 
0.08450 
0.08450 
0.08750 
0.08750 
0.09000 
0.09000 
0.09500 
0.09500 
0.03400 
0.03400 
0.01700 
0.01700 
0.04300 
0.04300 
0.03300 
0.03300 
0.09750 
0.09750 