# vtk DataFile Version 2.1 
Trajects from timestep 194 with color option 
ASCII 
 
DATASET POLYDATA POINTS 882 float 
4.460 -6.319 -73.552 
4.678 -6.218 -73.788 
1.107 -5.712 -70.498 
1.128 -5.594 -70.605 
1.285 5.324 -70.572 
1.380 5.346 -70.699 
5.876 5.352 -72.161 
5.752 5.223 -72.307 
-5.704 8.544 -73.037 
-5.574 8.622 -73.255 
-8.370 -8.214 -71.749 
-8.354 -8.103 -71.947 
-11.667 -4.263 -72.801 
-11.612 -4.154 -72.982 
1.981 0.054 -69.818 
2.020 0.258 -70.092 
-8.360 2.156 -68.892 
-8.295 2.467 -68.849 
2.911 3.524 -72.042 
2.994 3.354 -72.127 
-6.519 -0.744 -73.762 
-6.285 -0.596 -73.898 
4.295 2.404 -72.012 
4.344 2.267 -72.123 
-1.498 -5.830 -67.924 
-1.484 -5.649 -67.920 
-4.994 -1.604 -71.103 
-4.960 -1.436 -71.251 
-3.281 -5.975 -69.863 
-2.975 -5.868 -69.816 
-0.716 -0.293 -67.917 
-0.712 -0.122 -68.074 
11.030 4.390 -72.263 
11.147 4.533 -72.618 
5.131 4.131 -72.120 
5.263 3.929 -72.295 
5.905 -0.112 -69.260 
5.933 -0.158 -69.472 
4.420 6.837 -70.688 
4.250 6.823 -70.631 
-7.609 -11.913 -72.231 
-7.522 -11.584 -72.085 
-6.863 1.663 -74.158 
-6.775 1.897 -74.107 
3.741 1.292 -69.929 
3.836 1.088 -70.082 
-8.472 7.061 -74.925 
-8.135 7.185 -75.175 
6.119 4.279 -65.107 
6.035 4.329 -65.145 
4.892 9.007 -71.456 
4.853 8.887 -71.587 
1.366 -12.089 -69.714 
1.628 -12.131 -69.571 
4.658 4.155 -68.667 
4.610 4.141 -68.808 
4.822 8.466 -73.514 
4.774 8.233 -73.623 
4.496 6.132 -68.616 
4.448 6.074 -68.499 
-2.941 11.543 -64.483 
-2.981 11.937 -64.444 
3.405 -5.976 -73.203 
3.583 -5.865 -73.349 
-3.957 -2.854 -69.886 
-3.862 -2.617 -70.008 
5.643 -10.456 -69.048 
6.011 -10.389 -69.137 
-6.398 7.341 -66.367 
-6.408 7.538 -66.310 
-1.974 -8.657 -62.037 
-2.481 -8.570 -62.264 
-7.074 10.717 -69.438 
-7.085 10.685 -69.576 
2.385 9.320 -66.450 
2.087 9.145 -66.464 
0.877 -1.155 -67.807 
0.778 -1.097 -68.011 
-2.104 7.138 -65.848 
-2.141 7.199 -65.647 
-0.633 10.542 -70.106 
-0.925 10.564 -69.980 
-7.589 10.716 -75.424 
-7.504 10.920 -75.751 
2.799 1.635 -69.438 
2.852 1.399 -69.548 
7.766 -0.283 -70.246 
7.832 -0.277 -70.565 
0.796 10.409 -68.047 
0.341 10.146 -68.021 
-0.429 -5.177 -70.165 
-0.251 -4.935 -70.108 
-0.259 -7.162 -64.382 
-0.171 -7.276 -64.575 
-2.374 10.834 -70.525 
-2.524 11.142 -70.486 
-6.568 -1.029 -69.211 
-6.609 -0.813 -69.410 
9.733 2.680 -71.570 
9.843 2.718 -71.989 
-1.169 5.908 -62.456 
-1.300 5.922 -62.457 
11.817 -7.484 -73.281 
11.748 -7.478 -73.505 
11.531 0.927 -67.055 
11.590 0.955 -67.072 
0.397 -1.891 -64.412 
0.291 -1.955 -64.585 
9.429 0.777 -69.913 
9.386 0.803 -70.134 
3.847 8.165 -70.500 
3.774 8.133 -70.498 
-0.578 5.516 -68.394 
-0.459 5.520 -68.358 
0.428 -10.219 -60.643 
0.190 -10.117 -60.695 
3.677 -7.837 -67.114 
3.631 -7.622 -67.091 
-8.978 -11.182 -72.361 
-8.800 -11.026 -72.153 
4.749 -7.471 -65.811 
4.402 -7.431 -65.932 
4.974 5.530 -74.309 
4.925 5.183 -74.683 
8.188 -0.796 -68.958 
8.237 -0.747 -69.335 
-0.001 -6.247 -70.257 
0.132 -6.124 -70.377 
5.561 -4.117 -69.022 
5.700 -4.310 -69.255 
9.789 1.263 -64.807 
9.838 1.418 -64.983 
0.684 5.484 -65.195 
0.876 5.502 -65.273 
-2.346 7.532 -73.818 
-2.336 7.633 -73.986 
9.069 -5.612 -67.159 
9.246 -5.519 -67.098 
0.072 6.155 -74.250 
0.021 6.104 -74.589 
5.939 -7.719 -67.403 
5.765 -7.665 -67.632 
-3.909 -6.708 -62.479 
-3.911 -6.773 -62.607 
-7.006 -0.989 -64.364 
-7.135 -0.995 -64.715 
2.524 5.987 -71.984 
2.210 5.813 -72.148 
-3.761 2.084 -68.031 
-3.526 2.271 -68.133 
-3.319 6.596 -62.465 
-3.227 6.700 -62.169 
-5.932 -3.682 -65.101 
-5.828 -3.731 -65.250 
8.023 -6.915 -63.684 
7.848 -6.862 -63.661 
8.881 1.401 -70.196 
8.877 1.558 -70.508 
-11.846 -10.892 -73.379 
-11.852 -10.666 -73.455 
-3.105 -1.381 -66.181 
-3.166 -1.251 -66.592 
7.020 -0.369 -75.510 
7.189 -0.399 -75.778 
-4.212 8.339 -63.777 
-4.241 8.233 -63.398 
4.787 -1.916 -66.686 
4.852 -1.832 -67.067 
3.036 8.427 -74.084 
3.032 8.166 -74.000 
9.171 -5.908 -69.019 
9.246 -6.004 -69.009 
6.871 -7.789 -72.691 
7.094 -7.933 -72.831 
12.220 5.395 -67.919 
12.315 5.655 -67.957 
-11.086 -0.080 -67.589 
-10.889 0.276 -67.746 
5.209 -7.289 -69.715 
5.291 -7.354 -69.920 
-8.169 12.503 -70.536 
-8.250 12.521 -70.631 
1.694 -2.965 -64.016 
1.547 -2.975 -64.271 
4.872 8.270 -70.648 
4.692 7.989 -70.834 
3.727 -0.949 -60.964 
3.703 -0.970 -61.238 
9.112 -8.195 -68.828 
9.543 -7.971 -68.839 
1.011 -9.048 -73.386 
1.201 -9.032 -73.503 
2.678 0.332 -71.614 
2.799 0.435 -71.897 
-7.090 -7.156 -64.414 
-7.291 -7.038 -64.654 
5.644 5.142 -65.497 
5.518 5.136 -65.594 
-7.437 3.331 -62.169 
-7.657 3.448 -62.346 
2.659 11.006 -75.032 
2.586 10.765 -75.149 
-4.462 -10.053 -70.027 
-4.282 -10.024 -69.996 
8.722 -11.225 -68.911 
8.754 -11.198 -68.892 
5.671 -5.282 -73.520 
6.006 -5.326 -73.870 
-10.126 -7.101 -65.557 
-10.175 -7.081 -65.738 
-7.237 9.301 -67.124 
-7.353 9.068 -67.101 
9.274 -1.788 -71.497 
9.349 -1.789 -71.757 
-13.455 -4.674 -69.421 
-13.223 -4.503 -69.509 
-6.101 6.418 -64.441 
-6.104 6.686 -64.122 
5.035 3.299 -62.374 
4.966 3.383 -62.201 
-0.544 3.116 -63.737 
-0.600 3.144 -63.801 
6.156 1.842 -63.960 
6.153 1.824 -63.995 
2.594 3.046 -68.442 
2.741 2.866 -68.473 
4.075 0.520 -61.860 
4.150 0.548 -61.876 
2.075 5.224 -63.712 
1.819 5.306 -63.627 
-5.648 -0.091 -64.054 
-5.800 -0.156 -64.485 
14.573 -4.315 -72.659 
14.533 -4.168 -72.840 
-0.588 -2.002 -67.710 
-0.645 -1.907 -67.983 
8.766 -1.031 -66.857 
8.780 -1.003 -67.271 
-7.585 -4.453 -63.614 
-7.449 -4.413 -63.848 
-13.150 -3.242 -67.445 
-13.115 -3.216 -67.636 
-13.581 -3.382 -75.660 
-13.239 -3.074 -75.669 
-8.828 -3.324 -63.157 
-8.580 -3.300 -63.530 
-8.668 -11.556 -69.859 
-8.550 -11.466 -69.617 
-4.411 -5.346 -62.739 
-4.410 -5.363 -62.865 
1.355 -2.769 -73.080 
1.437 -2.628 -73.262 
8.279 -0.262 -75.427 
8.337 -0.207 -75.741 
-11.498 2.999 -62.650 
-11.705 3.054 -62.839 
6.724 3.048 -67.729 
6.743 3.068 -67.860 
7.123 12.781 -67.923 
6.953 12.668 -67.706 
-8.671 -9.149 -62.431 
-8.715 -9.324 -62.695 
-1.193 3.336 -64.467 
-1.169 3.118 -64.517 
-7.274 -6.193 -66.169 
-7.234 -6.175 -66.305 
12.012 11.955 -68.518 
11.927 11.965 -68.786 
2.144 1.440 -66.523 
2.304 1.297 -66.628 
-3.082 -11.616 -71.665 
-2.957 -11.535 -71.780 
6.989 -7.076 -66.688 
6.999 -7.074 -66.733 
-11.743 9.629 -66.619 
-11.787 9.838 -66.422 
-5.183 5.130 -61.036 
-5.124 5.230 -60.953 
1.204 5.419 -62.840 
0.985 5.508 -62.884 
5.769 2.815 -61.166 
5.662 2.906 -61.348 
-10.322 -4.107 -72.950 
-10.283 -4.126 -73.283 
-9.314 11.118 -67.464 
-9.429 10.904 -67.486 
5.417 10.274 -74.029 
5.231 10.053 -74.016 
-6.727 -2.296 -62.776 
-6.727 -2.081 -62.994 
-3.492 3.508 -62.632 
-3.455 3.507 -62.609 
-7.385 12.674 -66.979 
-7.643 12.746 -66.934 
-11.858 -7.754 -60.915 
-11.881 -7.625 -61.290 
3.132 7.637 -63.037 
3.186 7.756 -62.941 
-13.660 6.962 -77.600 
-13.574 6.965 -78.019 
-4.843 10.386 -69.407 
-4.981 10.729 -69.636 
-2.960 -8.524 -63.771 
-3.052 -8.805 -63.643 
13.669 6.288 -69.559 
13.395 6.696 -69.940 
-10.999 -4.443 -63.345 
-10.983 -4.439 -63.539 
-11.185 8.731 -76.461 
-11.276 8.788 -76.986 
-13.513 -5.118 -73.869 
-13.294 -5.310 -74.154 
3.139 10.704 -69.725 
3.097 10.443 -69.751 
-10.113 7.883 -74.963 
-9.807 8.274 -75.267 
14.081 11.107 -70.145 
14.342 11.304 -70.364 
-7.421 -5.571 -64.852 
-7.466 -5.384 -65.186 
3.516 -10.263 -68.961 
3.845 -10.277 -69.019 
0.350 3.519 -63.643 
0.305 3.542 -63.670 
11.641 10.631 -71.409 
11.551 10.663 -71.592 
1.673 0.434 -72.437 
1.794 0.513 -72.568 
-4.146 -3.033 -64.121 
-4.027 -2.956 -64.433 
4.887 0.240 -62.396 
4.876 0.305 -62.589 
0.052 1.766 -71.198 
0.115 2.123 -71.415 
14.041 11.839 -67.611 
14.159 12.024 -67.988 
9.041 -2.866 -65.491 
9.019 -2.770 -65.749 
7.267 4.797 -61.270 
7.061 4.689 -61.259 
-4.623 -1.405 -63.786 
-4.488 -1.402 -64.193 
-3.761 0.377 -62.578 
-3.838 0.330 -62.990 
-0.972 -0.552 -63.613 
-1.057 -0.477 -63.927 
10.256 2.912 -70.030 
10.209 2.846 -70.258 
-11.017 -10.140 -71.756 
-10.977 -10.099 -71.957 
-7.107 2.891 -61.798 
-7.345 2.932 -61.994 
9.165 -2.615 -72.353 
9.241 -2.463 -72.627 
-9.861 -2.180 -67.576 
-9.683 -2.078 -67.730 
9.726 8.118 -66.863 
9.739 8.040 -66.948 
-10.183 8.989 -70.748 
-10.100 8.898 -70.582 
-15.023 11.791 -74.840 
-14.830 11.655 -75.203 
3.237 -6.934 -67.058 
3.124 -6.881 -67.131 
-8.890 8.123 -70.953 
-8.650 8.262 -70.859 
-5.421 -4.288 -62.648 
-5.492 -4.156 -63.028 
4.953 10.369 -65.807 
4.959 10.332 -65.673 
0.152 0.426 -66.976 
0.184 0.565 -67.157 
6.565 -11.535 -66.370 
6.783 -11.356 -66.303 
8.729 -4.419 -67.800 
8.740 -4.529 -67.889 
1.771 5.819 -71.466 
1.728 5.771 -71.516 
-8.453 -0.492 -67.591 
-8.341 -0.252 -68.041 
8.459 7.113 -64.446 
8.484 7.029 -64.311 
-0.476 -9.264 -73.027 
-0.245 -9.123 -73.127 
12.058 1.913 -69.639 
11.861 2.024 -69.723 
-3.775 -8.610 -65.090 
-3.872 -8.580 -65.114 
-0.681 -7.152 -70.476 
-0.452 -7.103 -70.660 
-3.715 11.103 -77.323 
-3.528 11.400 -77.543 
-11.310 -7.633 -68.688 
-11.138 -7.644 -68.836 
0.806 9.223 -72.916 
0.712 9.204 -73.109 
-0.864 2.909 -63.629 
-0.806 2.807 -63.650 
10.887 12.074 -70.697 
10.497 12.066 -70.725 
-0.110 -10.552 -70.590 
-0.023 -10.488 -70.685 
-4.514 -10.868 -68.406 
-4.315 -10.948 -68.332 
4.819 5.965 -65.977 
4.512 5.906 -65.981 
9.052 -11.627 -68.387 
9.081 -11.618 -68.383 
3.019 2.958 -64.159 
2.906 2.820 -64.043 
-7.728 9.801 -61.328 
-7.548 9.914 -60.879 
5.642 8.936 -70.260 
5.581 8.588 -70.344 
8.784 8.046 -65.180 
8.798 7.872 -65.156 
-3.425 1.497 -63.566 
-3.484 1.501 -63.659 
-5.236 -7.392 -70.565 
-4.961 -7.346 -70.659 
-10.562 4.959 -66.944 
-10.552 5.260 -67.014 
-5.495 -6.973 -63.641 
-5.598 -7.048 -63.776 
-2.215 9.755 -60.259 
-2.361 9.924 -60.144 
-6.633 -0.902 -63.227 
-6.480 -0.922 -63.563 
8.667 4.549 -68.081 
8.560 4.437 -68.069 
7.326 10.905 -70.315 
7.459 10.532 -70.039 
0.908 -6.896 -62.396 
0.843 -6.810 -62.589 
3.604 4.070 -67.288 
3.631 4.016 -67.507 
-13.737 11.754 -73.796 
-13.610 12.036 -74.092 
-0.996 -10.760 -70.690 
-0.835 -10.719 -70.724 
10.147 -8.484 -74.218 
10.383 -8.498 -74.422 
-9.726 6.221 -73.304 
[...]
POINT_DATA 882 
SCALARS Umean double 1 
LOOKUP_TABLE default
0.16839 
0.16839 
0.08033 
0.08033 
0.08006 
0.08006 
0.11547 
0.11547 
0.13277 
0.13277 
0.11378 
0.11378 
0.10916 
0.10916 
0.17191 
0.17191 
0.16031 
0.16031 
0.10370 
0.10370 
0.15424 
0.15424 
0.09150 
0.09150 
0.09079 
0.09079 
0.11323 
0.11323 
0.16378 
0.16378 
0.11609 
0.11609 
0.20010 
0.20010 
0.14904 
0.14904 
0.10937 
0.10937 
0.08992 
0.08992 
0.18515 
0.18515 
0.12757 
0.12757 
0.13606 
0.13606 
0.21877 
0.21877 
0.05244 
0.05244 
0.09094 
0.09094 
0.15071 
0.15071 
0.07480 
0.07480 
0.13084 
0.13084 
0.06956 
0.06956 
0.19897 
0.19897 
0.12779 
0.12779 
0.14149 
0.14149 
0.19225 
0.19225 
0.10266 
0.10266 
0.28113 
0.28113 
0.07104 
0.07104 
0.17293 
0.17293 
0.11703 
0.11703 
0.10664 
0.10664 
0.15939 
0.15939 
0.19734 
0.19734 
0.13286 
0.13286 
0.16291 
0.16291 
0.26309 
0.26309 
0.15289 
0.15289 
0.12040 
0.12040 
0.17240 
0.17240 
0.14827 
0.14827 
0.21743 
0.21743 
0.06587 
0.06587 
0.11723 
0.11723 
0.03374 
0.03374 
0.10637 
0.10637 
0.11332 
0.11332 
0.03987 
0.03987 
0.06220 
0.06220 
0.13205 
0.13205 
0.11053 
0.11053 
0.15755 
0.15755 
0.18483 
0.18483 
0.25626 
0.25626 
0.19166 
0.19166 
0.10865 
0.10865 
0.16648 
0.16648 
0.11979 
0.11979 
0.10401 
0.10401 
0.09814 
0.09814 
0.10452 
0.10452 
0.17329 
0.17329 
0.14632 
0.14632 
0.07179 
0.07179 
0.18700 
0.18700 
0.19734 
0.19734 
0.15859 
0.15859 
0.16347 
0.16347 
0.09410 
0.09410 
0.09215 
0.09215 
0.17465 
0.17465 
0.11926 
0.11926 
0.21768 
0.21768 
0.15913 
0.15913 
0.19731 
0.19731 
0.19776 
0.19776 
0.13711 
0.13711 
0.06112 
0.06112 
0.15005 
0.15005 
0.13970 
0.13970 
0.21806 
0.21806 
0.11508 
0.11508 
0.06307 
0.06307 
0.14725 
0.14725 
0.19102 
0.19102 
0.13792 
0.13792 
0.24293 
0.24293 
0.11185 
0.11185 
0.16228 
0.16228 
0.16728 
0.16728 
0.07956 
0.07956 
0.15282 
0.15282 
0.13883 
0.13883 
0.09247 
0.09247 
0.02299 
0.02299 
0.24324 
0.24324 
0.09429 
0.09429 
0.13065 
0.13065 
0.13530 
0.13530 
0.15067 
0.15067 
0.20832 
0.20832 
0.10216 
0.10216 
0.04477 
0.04477 
0.01974 
0.01974 
0.11723 
0.11723 
0.04082 
0.04082 
0.14097 
0.14097 
0.23081 
0.23081 
0.11829 
0.11829 
0.14731 
0.14731 
0.20759 
0.20759 
0.13680 
0.13680 
0.09796 
0.09796 
0.23017 
0.23017 
0.22428 
0.22428 
0.14194 
0.14194 
0.06357 
0.06357 
0.12220 
0.12220 
0.16201 
0.16201 
0.14282 
0.14282 
0.06694 
0.06694 
0.14896 
0.14896 
0.15989 
0.15989 
0.11247 
0.11247 
0.07145 
0.07145 
0.14067 
0.14067 
0.11945 
0.11945 
0.09409 
0.09409 
0.02307 
0.02307 
0.14528 
0.14528 
0.07136 
0.07136 
0.12023 
0.12023 
0.11495 
0.11495 
0.16791 
0.16791 
0.12197 
0.12197 
0.14457 
0.14457 
0.15309 
0.15309 
0.02179 
0.02179 
0.13581 
0.13581 
0.19862 
0.19862 
0.08108 
0.08108 
0.21387 
0.21387 
0.21745 
0.21745 
0.16110 
0.16110 
0.31093 
0.31093 
0.09735 
0.09735 
0.26793 
0.26793 
0.20375 
0.20375 
0.13282 
0.13282 
0.29109 
0.29109 
0.19678 
0.19678 
0.19271 
0.19271 
0.16718 
0.16718 
0.02865 
0.02865 
0.10321 
0.10321 
0.09752 
0.09752 
0.17134 
0.17134 
0.10197 
0.10197 
0.21125 
0.21125 
0.21810 
0.21810 
0.13808 
0.13808 
0.11643 
0.11643 
0.21441 
0.21441 
0.21088 
0.21088 
0.16692 
0.16692 
0.12098 
0.12098 
0.10450 
0.10450 
0.15552 
0.15552 
0.16121 
0.16121 
0.12826 
0.12826 
0.05805 
0.05805 
0.10335 
0.10335 
0.21651 
0.21651 
0.07230 
0.07230 
0.14642 
0.14642 
0.20425 
0.20425 
0.06957 
0.06957 
0.11522 
0.11522 
0.14496 
0.14496 
0.07096 
0.07096 
0.04078 
0.04078 
0.26108 
0.26108 
0.08048 
0.08048 
0.14426 
0.14426 
0.12061 
0.12061 
0.05217 
0.05217 
0.14891 
0.14891 
0.20711 
0.20711 
0.11359 
0.11359 
0.10776 
0.10776 
0.05960 
0.05960 
0.19554 
0.19554 
0.07192 
0.07192 
0.11344 
0.11344 
0.15632 
0.15632 
0.01531 
0.01531 
0.10638 
0.10638 
0.24838 
0.24838 
0.18158 
0.18158 
0.08810 
0.08810 
0.05510 
0.05510 
0.14712 
0.14712 
0.15460 
0.15460 
0.09282 
0.09282 
0.12560 
0.12560 
0.18487 
0.18487 
0.07768 
0.07768 
0.24135 
0.24135 
0.11053 
0.11053 
0.11358 
0.11358 
0.21405 
0.21405 
0.08479 
0.08479 
0.15613 
0.15613 
0.15121 
0.15121 
0.15761 
0.15761 
0.21084 
0.21084 
0.10729 
0.10729 
0.21373 
0.21373 
0.16657 
0.16657 
0.12347 
0.12347 
0.17516 
0.17516 
0.28144 
0.28144 
0.18681 
0.18681 
0.19288 
0.19288 
0.10764 
0.10764 
0.12540 
0.12540 
0.15027 
0.15027 
0.11112 
0.11112 
0.08457 
0.08457 
0.09019 
0.09019 
0.04405 
0.04405 
0.11580 
0.11580 
0.19753 
0.19753 
0.07399 
0.07399 
0.19916 
0.19916 
0.09315 
0.09315 
0.16661 
0.16661 
0.06807 
0.06807 
0.09703 
0.09703 
0.23684 
0.23684 
0.09220 
0.09220 
0.16457 
0.16457 
0.15630 
0.15630 
0.19883 
0.19883 
0.10042 
0.10042 
0.11612 
0.11612 
0.08332 
0.08332 
0.24403 
0.24403 
0.14885 
0.14885 
0.24934 
0.24934 
0.05784 
0.05784 
0.14792 
0.14792 
0.17084 
0.17084 
0.23491 
0.23491 
0.14499 
0.14499 
0.19978 
0.19978 
0.14496 
0.14496 
0.12585 
0.12585 
0.14184 
0.14184 
0.14781 
0.14781 
0.10948 
0.10948 
0.18496 
0.18496 
0.09831 
0.09831 
0.08371 
0.08371 
0.15642 
0.15642 
0.13932 
0.13932 
0.26163 
0.26163 
0.27056 
0.27056 
0.19978 
0.19978 
0.23976 
0.23976 
0.11064 
0.11064 
0.19274 
0.19274 
0.08792 
0.08792 
0.13875 
0.13875 
0.11818 
0.11818 
0.04315 
0.04315 
0.09014 
0.09014 
0.12826 
0.12826 
0.18220 
0.18220 
0.08333 
0.08333 
0.23875 
0.23875 
0.19095 
0.19095 
0.16302 
0.16302 
0.12505 
0.12505 
0.17755 
0.17755 
0.09792 
0.09792 
0.04184 
0.04184 
0.06640 
0.06640 
0.07865 
0.07865 
0.24117 
0.24117 
0.14464 
0.14464 
0.09968 
0.09968 
0.14158 
0.14158 
0.08480 
0.08480 
0.10794 
0.10794 
0.22730 
0.22730 
0.06479 
0.06479 
0.03699 
0.03699 
0.09444 
0.09444 
0.13183 
0.13183 
0.11037 
0.11037 
0.11737 
0.11737 
0.12445 
0.12445 
0.18301 
0.18301 
0.11529 
0.11529 
0.07693 
0.07693 
0.08755 
0.08755 
0.17187 
0.17187 
0.21526 
0.21526 
0.20578 
0.20578 
0.13642 
0.13642 
0.03235 
0.03235 
0.17049 
0.17049 
0.03937 
0.03937 
0.06478 
0.06478 
0.08386 
0.08386 
0.19595 
0.19595 
0.15159 
0.15159 
0.13120 
0.13120 
0.04886 
0.04886 
0.22644 
0.22644 
0.15776 
0.15776 
0.08556 
0.08556 
0.14826 
0.14826 
0.08536 
0.08536 
0.19139 
0.19139 
0.16238 
0.16238 
0.19519 
0.19519 
0.28550 
0.28550 
0.11680 
0.11680 
0.22409 
0.22409 
0.06996 
0.06996 
0.28749 
0.28749 
0.20290 
0.20290 
0.13874 
0.13874 
0.14385 
0.14385 
0.11943 
0.11943 
0.14740 
0.14740 
0.14485 
0.14485 
0.16298 
0.16298 
0.10849 
0.10849 
0.06091 
0.06091 
0.08210 
0.08210 
0.20085 
0.20085 
0.11170 
0.11170 
0.17611 
0.17611 
0.17507 
0.17507 
0.09592 
0.09592 
0.19089 
0.19089 
0.05925 
0.05925 
0.15359 
0.15359 
0.10005 
0.10005 
0.08965 
0.08965 
0.11247 
0.11247 
0.20086 
0.20086 
0.10864 
0.10864 
0.25332 
0.25332 
0.20394 
0.20394 
0.24364 
0.24364 
0.10487 
0.10487 
0.10575 
0.10575 
0.10926 
0.10926 
0.16805 
0.16805 
0.31835 
0.31835 
0.17965 
0.17965 
0.07947 
0.07947 
0.14834 
0.14834 
0.10051 
0.10051 
0.08690 
0.08690 
0.17012 
0.17012 
0.16668 
0.16668 
0.11944 
0.11944 
0.06319 
0.06319 
0.18070 
0.18070 
0.15683 
0.15683 
0.07921 
0.07921 
0.21564 
0.21564 
0.12449 
0.12449 
0.12364 
0.12364 
0.08228 
0.08228 
0.28865 
0.28865 
0.06791 
0.06791 
0.17630 
0.17630 
0.07045 
0.07045 
0.09043 
0.09043 
0.22322 
0.22322 
0.07481 
0.07481 
0.25837 
0.25837 
0.14769 
0.14769 
0.09843 
0.09843 
0.11458 
0.11458 
0.07619 
0.07619 
0.17031 
0.17031 
0.10607 
0.10607 
0.23458 
0.23458 
0.14293 
0.14293 
0.14533 
0.14533 
0.23021 
0.23021 
0.08145 
0.08145 
0.17783 
0.17783 
0.06649 
0.06649 
0.20446 
0.20446 
0.10561 
0.10561 
0.09427 
0.09427 
0.12421 
0.12421 
0.09925 
0.09925 
0.13804 
0.13804 
0.17527 
0.17527 
0.15991 
0.15991 
0.18958 
0.18958 
0.11119 
0.11119 
0.18729 
0.18729 
0.21186 
0.21186 
0.18734 
0.18734 
0.25893 
0.25893 
0.13196 
0.13196 
0.05778 
0.05778 
0.12166 
0.12166 
0.09857 
0.09857 
0.09033 
0.09033 
0.23140 
0.23140 
0.16608 
0.16608 
0.16207 
0.16207 
0.12999 
0.12999 
0.09280 
0.09280 
0.14800 
0.14800 
0.14844 
0.14844 
0.13615 
0.13615 
0.20097 
0.20097 
0.08030 
0.08030 
0.10741 
0.10741 
0.08212 
0.08212 
0.13151 
0.13151 
SCALARS Umean_X double 1 
LOOKUP_TABLE default
0.10900 
0.10900 
0.01050 
0.01050 
0.04750 
0.04750 
-0.06200 
-0.06200 
0.06500 
0.06500 
0.00800 
0.00800 
0.02750 
0.02750 
0.01950 
0.01950 
0.03250 
0.03250 
0.04150 
0.04150 
0.11700 
0.11700 
0.02450 
0.02450 
0.00700 
0.00700 
0.01700 
0.01700 
0.15300 
0.15300 
0.00200 
0.00200 
0.05850 
0.05850 
0.06600 
0.06600 
0.01400 
0.01400 
-0.08500 
-0.08500 
0.04350 
0.04350 
0.04400 
0.04400 
0.04750 
0.04750 
0.16850 
0.16850 
-0.04200 
-0.04200 
-0.01950 
-0.01950 
0.13100 
0.13100 
-0.02400 
-0.02400 
-0.02400 
-0.02400 
-0.02400 
-0.02400 
-0.02000 
-0.02000 
0.08900 
0.08900 
0.04750 
0.04750 
0.18400 
0.18400 
-0.00500 
-0.00500 
-0.25350 
-0.25350 
-0.00550 
-0.00550 
-0.14900 
-0.14900 
-0.04950 
-0.04950 
-0.01850 
-0.01850 
-0.14600 
-0.14600 
0.04250 
0.04250 
0.02650 
0.02650 
0.03300 
0.03300 
-0.22750 
-0.22750 
0.08900 
0.08900 
0.04400 
0.04400 
-0.07500 
-0.07500 
-0.02050 
-0.02050 
0.05500 
0.05500 
-0.06550 
-0.06550 
-0.03450 
-0.03450 
0.02950 
0.02950 
-0.05300 
-0.05300 
-0.02150 
-0.02150 
-0.03650 
-0.03650 
0.05950 
0.05950 
-0.11900 
-0.11900 
-0.02300 
-0.02300 
0.08900 
0.08900 
-0.17350 
-0.17350 
-0.02450 
-0.02450 
0.02450 
0.02450 
0.06650 
0.06650 
0.06950 
0.06950 
0.02450 
0.02450 
0.09600 
0.09600 
0.00500 
0.00500 
0.08850 
0.08850 
-0.02550 
-0.02550 
-0.08700 
-0.08700 
-0.00100 
-0.00100 
-0.06450 
-0.06450 
-0.15700 
-0.15700 
0.11750 
0.11750 
0.04600 
0.04600 
0.05200 
0.05200 
-0.08750 
-0.08750 
-0.00200 
-0.00200 
-0.00300 
-0.00300 
-0.03050 
-0.03050 
0.08450 
0.08450 
-0.01450 
-0.01450 
0.03250 
0.03250 
-0.00200 
-0.00200 
0.03750 
0.03750 
0.11150 
0.11150 
0.04750 
0.04750 
0.09850 
0.09850 
0.04100 
0.04100 
-0.04050 
-0.04050 
-0.07350 
-0.07350 
-0.09000 
-0.09000 
-0.01200 
-0.01200 
0.21550 
0.21550 
0.09500 
0.09500 
0.06050 
0.06050 
-0.10050 
-0.10050 
-0.06300 
-0.06300 
-0.11000 
-0.11000 
-0.03650 
-0.03650 
0.09000 
0.09000 
0.01600 
0.01600 
0.16750 
0.16750 
-0.02450 
-0.02450 
-0.05800 
-0.05800 
0.03750 
0.03750 
0.11600 
0.11600 
-0.00150 
-0.00150 
-0.03450 
-0.03450 
-0.02800 
-0.02800 
-0.00150 
-0.00150 
0.07350 
0.07350 
0.03750 
0.03750 
-0.12800 
-0.12800 
-0.07600 
-0.07600 
-0.02000 
-0.02000 
-0.02850 
-0.02850 
0.00700 
0.00700 
0.06800 
0.06800 
0.01750 
0.01750 
0.17100 
0.17100 
0.12400 
0.12400 
0.05900 
0.05900 
0.00050 
0.00050 
0.04100 
0.04100 
0.02900 
0.02900 
-0.10350 
-0.10350 
0.00950 
0.00950 
-0.08500 
-0.08500 
-0.02200 
-0.02200 
0.01200 
0.01200 
0.02000 
0.02000 
-0.04250 
-0.04250 
0.08000 
0.08000 
0.06250 
0.06250 
0.00500 
0.00500 
-0.02200 
-0.02200 
0.02950 
0.02950 
-0.10950 
-0.10950 
-0.05350 
-0.05350 
0.01950 
0.01950 
-0.05750 
-0.05750 
-0.09300 
-0.09300 
-0.00000 
-0.00000 
0.01850 
0.01850 
-0.12900 
-0.12900 
-0.01150 
-0.01150 
0.02700 
0.02700 
0.04300 
0.04300 
-0.06900 
-0.06900 
-0.04600 
-0.04600 
-0.13700 
-0.13700 
0.00800 
0.00800 
-0.04550 
-0.04550 
0.10950 
0.10950 
-0.02100 
-0.02100 
0.15300 
0.15300 
0.13050 
0.13050 
-0.02250 
-0.02250 
0.16450 
0.16450 
-0.02250 
-0.02250 
-0.04500 
-0.04500 
0.06050 
0.06050 
0.05950 
0.05950 
-0.00550 
-0.00550 
0.03150 
0.03150 
0.05900 
0.05900 
-0.01100 
-0.01100 
-0.10300 
-0.10300 
0.06750 
0.06750 
-0.03850 
-0.03850 
-0.04250 
-0.04250 
-0.02350 
-0.02350 
0.02000 
0.02000 
-0.11900 
-0.11900 
0.03800 
0.03800 
0.08900 
0.08900 
0.00650 
0.00650 
0.04150 
0.04150 
0.09650 
0.09650 
-0.05650 
-0.05650 
0.12000 
0.12000 
-0.03550 
-0.03550 
0.00300 
0.00300 
0.01600 
0.01600 
0.10900 
0.10900 
0.00550 
0.00550 
-0.02150 
-0.02150 
0.05600 
0.05600 
0.01250 
0.01250 
0.11550 
0.11550 
-0.09850 
-0.09850 
-0.04850 
-0.04850 
0.11450 
0.11450 
0.09350 
0.09350 
0.08600 
0.08600 
-0.04700 
-0.04700 
0.02900 
0.02900 
-0.19500 
-0.19500 
0.04350 
0.04350 
0.09950 
0.09950 
-0.15350 
-0.15350 
0.01450 
0.01450 
-0.05650 
-0.05650 
0.09000 
0.09000 
-0.03050 
-0.03050 
0.00700 
0.00700 
-0.02950 
-0.02950 
0.13750 
0.13750 
0.00500 
0.00500 
-0.05150 
-0.05150 
-0.07300 
-0.07300 
0.07650 
0.07650 
-0.05350 
-0.05350 
0.06650 
0.06650 
-0.03250 
-0.03250 
0.01350 
0.01350 
0.06350 
0.06350 
0.08050 
0.08050 
0.11800 
0.11800 
0.08100 
0.08100 
0.05800 
0.05800 
0.02550 
0.02550 
-0.04050 
-0.04050 
0.12900 
0.12900 
0.11600 
0.11600 
-0.06900 
-0.06900 
0.08250 
0.08250 
0.02050 
0.02050 
0.06150 
0.06150 
-0.00000 
-0.00000 
0.01850 
0.01850 
0.04000 
0.04000 
-0.06000 
-0.06000 
0.01150 
0.01150 
-0.02950 
-0.02950 
-0.01900 
-0.01900 
0.03850 
0.03850 
0.06400 
0.06400 
-0.02000 
-0.02000 
0.07050 
0.07050 
0.02550 
0.02550 
0.00550 
0.00550 
0.09350 
0.09350 
-0.05300 
-0.05300 
-0.04350 
-0.04350 
0.07000 
0.07000 
0.04200 
0.04200 
0.16300 
0.16300 
0.12550 
0.12550 
0.15450 
0.15450 
0.09050 
0.09050 
0.06500 
0.06500 
0.04450 
0.04450 
-0.10000 
-0.10000 
-0.10500 
-0.10500 
0.09100 
0.09100 
-0.02800 
-0.02800 
-0.00300 
-0.00300 
-0.01400 
-0.01400 
-0.08650 
-0.08650 
0.13600 
0.13600 
0.08600 
0.08600 
-0.12150 
-0.12150 
0.07400 
0.07400 
-0.00150 
-0.00150 
0.06800 
0.06800 
-0.01000 
-0.01000 
0.06800 
0.06800 
0.02900 
0.02900 
0.03850 
0.03850 
0.03100 
0.03100 
-0.11100 
-0.11100 
-0.05950 
-0.05950 
0.01150 
0.01150 
0.16700 
0.16700 
0.14150 
0.14150 
0.09900 
0.09900 
-0.06750 
-0.06750 
0.04300 
0.04300 
-0.04500 
-0.04500 
0.11550 
0.11550 
-0.03050 
-0.03050 
-0.03350 
-0.03350 
0.12100 
0.12100 
-0.12600 
-0.12600 
0.06900 
0.06900 
0.01050 
0.01050 
0.00950 
0.00950 
0.07600 
0.07600 
-0.00750 
-0.00750 
0.03850 
0.03850 
-0.04350 
-0.04350 
0.02150 
0.02150 
0.05600 
0.05600 
-0.05600 
-0.05600 
0.13250 
0.13250 
-0.07300 
-0.07300 
-0.03450 
-0.03450 
-0.05350 
-0.05350 
-0.04550 
-0.04550 
-0.03850 
-0.03850 
-0.03500 
-0.03500 
0.05150 
0.05150 
0.02200 
0.02200 
0.00350 
0.00350 
0.12650 
0.12650 
0.02050 
0.02050 
0.08450 
0.08450 
0.08350 
0.08350 
-0.16500 
-0.16500 
0.02950 
0.02950 
0.06450 
0.06450 
-0.08000 
-0.08000 
0.02750 
0.02750 
0.18600 
0.18600 
-0.17900 
-0.17900 
-0.12800 
-0.12800 
-0.00250 
-0.00250 
0.01750 
0.01750 
-0.00000 
-0.00000 
-0.03500 
-0.03500 
0.08250 
0.08250 
0.06350 
0.06350 
-0.06100 
-0.06100 
0.09750 
0.09750 
-0.00900 
-0.00900 
-0.03350 
-0.03350 
-0.01350 
-0.01350 
-0.03700 
-0.03700 
-0.02750 
-0.02750 
0.04150 
0.04150 
0.09300 
0.09300 
-0.14550 
-0.14550 
-0.02250 
-0.02250 
0.18500 
0.18500 
0.05350 
0.05350 
-0.09550 
-0.09550 
-0.02250 
-0.02250 
0.05000 
0.05000 
-0.03550 
-0.03550 
0.12050 
0.12050 
-0.01100 
-0.01100 
-0.02650 
-0.02650 
0.08600 
0.08600 
-0.04950 
-0.04950 
0.10050 
0.10050 
-0.01000 
-0.01000 
0.01250 
0.01250 
-0.04400 
-0.04400 
0.07600 
0.07600 
-0.02200 
-0.02200 
0.06900 
0.06900 
0.15700 
0.15700 
-0.03700 
-0.03700 
0.09750 
0.09750 
0.03600 
0.03600 
0.13350 
0.13350 
-0.04600 
-0.04600 
0.04250 
0.04250 
0.04800 
0.04800 
-0.04050 
-0.04050 
-0.00050 
-0.00050 
0.14300 
0.14300 
0.03550 
0.03550 
0.12100 
0.12100 
-0.08050 
-0.08050 
0.02100 
0.02100 
0.03600 
0.03600 
-0.02800 
-0.02800 
0.05350 
0.05350 
-0.00250 
-0.00250 
0.07450 
0.07450 
0.06250 
0.06250 
0.02900 
0.02900 
0.04500 
0.04500 
0.00900 
0.00900 
0.09100 
0.09100 
-0.07450 
-0.07450 
-0.00650 
-0.00650 
-0.09600 
-0.09600 
-0.03150 
-0.03150 
0.05900 
0.05900 
0.14700 
0.14700 
-0.04500 
-0.04500 
0.05150 
0.05150 
-0.07250 
-0.07250 
0.12150 
0.12150 
0.02550 
0.02550 
0.13800 
0.13800 
-0.03050 
-0.03050 
-0.05600 
-0.05600 
0.09450 
0.09450 
-0.02200 
-0.02200 
0.06350 
0.06350 
-0.00000 
-0.00000 
0.04200 
0.04200 
0.03350 
0.03350 
0.07200 
0.07200 
0.00700 
0.00700 
-0.03500 
-0.03500 
0.12300 
0.12300 
-0.11650 
-0.11650 
0.10900 
0.10900 
0.18200 
0.18200 
0.07950 
0.07950 
0.03150 
0.03150 
0.01650 
0.01650 
-0.17050 
-0.17050 
0.08550 
0.08550 
-0.06250 
-0.06250 
0.03100 
0.03100 
0.00500 
0.00500 
0.04200 
0.04200 
0.00600 
0.00600 
0.05350 
0.05350 
-0.11850 
-0.11850 
0.10550 
0.10550 
0.02950 
0.02950 
0.14100 
0.14100 
0.11550 
0.11550 
-0.11200 
-0.11200 
-0.05300 
-0.05300 
0.03100 
0.03100 
0.05100 
0.05100 
0.07550 
0.07550 
0.02250 
0.02250 
-0.01300 
-0.01300 
0.00450 
0.00450 
-0.00900 
-0.00900 
0.07700 
0.07700 
0.05450 
0.05450 
-0.11400 
-0.11400 
0.09600 
0.09600 
0.10750 
0.10750 
0.04000 
0.04000 
-0.00650 
-0.00650 
-0.02400 
-0.02400 
-0.06800 
-0.06800 
-0.13150 
-0.13150 
SCALARS Umean_Y double 1 
LOOKUP_TABLE default
0.05050 
0.05050 
0.05900 
0.05900 
0.01100 
0.01100 
-0.06450 
-0.06450 
0.03900 
0.03900 
0.05550 
0.05550 
0.05450 
0.05450 
0.10200 
0.10200 
0.15550 
0.15550 
-0.08500 
-0.08500 
0.07400 
0.07400 
-0.06850 
-0.06850 
0.09050 
0.09050 
0.08400 
0.08400 
0.05350 
0.05350 
0.08550 
0.08550 
0.07150 
0.07150 
-0.10100 
-0.10100 
-0.02300 
-0.02300 
-0.00700 
-0.00700 
0.16450 
0.16450 
0.11700 
0.11700 
-0.10200 
-0.10200 
0.06200 
0.06200 
0.02500 
0.02500 
-0.06000 
-0.06000 
-0.02100 
-0.02100 
-0.00700 
-0.00700 
-0.11650 
-0.11650 
-0.02900 
-0.02900 
0.19700 
0.19700 
0.05550 
0.05550 
0.11850 
0.11850 
0.03350 
0.03350 
0.09850 
0.09850 
0.04350 
0.04350 
-0.01600 
-0.01600 
-0.08750 
-0.08750 
0.02900 
0.02900 
0.03050 
0.03050 
0.01100 
0.01100 
0.10200 
0.10200 
-0.11800 
-0.11800 
0.00300 
0.00300 
-0.13150 
-0.13150 
0.12100 
0.12100 
-0.05700 
-0.05700 
0.15400 
0.15400 
0.10800 
0.10800 
0.01900 
0.01900 
0.00700 
0.00700 
0.00300 
0.00300 
0.01400 
0.01400 
-0.03200 
-0.03200 
0.01300 
0.01300 
-0.01600 
-0.01600 
0.00200 
0.00200 
0.05100 
0.05100 
0.10750 
0.10750 
0.07800 
0.07800 
0.02000 
0.02000 
-0.17350 
-0.17350 
0.02450 
0.02450 
0.06150 
0.06150 
-0.09650 
-0.09650 
0.07750 
0.07750 
0.00900 
0.00900 
0.05050 
0.05050 
0.04650 
0.04650 
-0.02550 
-0.02550 
0.02700 
0.02700 
-0.03250 
-0.03250 
-0.00300 
-0.00300 
-0.08700 
-0.08700 
0.09350 
0.09350 
0.05200 
0.05200 
-0.02450 
-0.02450 
0.02650 
0.02650 
0.07850 
0.07850 
0.11300 
0.11300 
0.06500 
0.06500 
-0.01500 
-0.01500 
-0.05300 
-0.05300 
0.04200 
0.04200 
-0.13050 
-0.13050 
-0.04800 
-0.04800 
-0.07200 
-0.07200 
0.13000 
0.13000 
0.17800 
0.17800 
-0.03250 
-0.03250 
0.00900 
0.00900 
-0.00500 
-0.00500 
-0.14050 
-0.14050 
-0.01050 
-0.01050 
0.11200 
0.11200 
0.00800 
0.00800 
0.05150 
0.05150 
0.05900 
0.05900 
-0.00300 
-0.00300 
0.05850 
0.05850 
-0.12050 
-0.12050 
0.01450 
0.01450 
0.01350 
0.01350 
-0.02200 
-0.02200 
0.01000 
0.01000 
-0.11650 
-0.11650 
-0.00050 
-0.00050 
0.08550 
0.08550 
0.13400 
0.13400 
0.04200 
0.04200 
0.01400 
0.01400 
-0.00900 
-0.00900 
-0.09000 
-0.09000 
0.01400 
0.01400 
0.04100 
0.04100 
-0.03250 
-0.03250 
0.07350 
0.07350 
0.04750 
0.04750 
0.01400 
0.01400 
0.02000 
0.02000 
0.01300 
0.01300 
0.15400 
0.15400 
0.01200 
0.01200 
0.04500 
0.04500 
-0.00850 
-0.00850 
0.07050 
0.07050 
0.02750 
0.02750 
0.02750 
0.02750 
0.01000 
0.01000 
-0.05650 
-0.05650 
-0.08750 
-0.08750 
-0.10900 
-0.10900 
0.00900 
0.00900 
0.00500 
0.00500 
-0.07150 
-0.07150 
0.04050 
0.04050 
0.00100 
0.00100 
0.10450 
0.10450 
0.05000 
0.05000 
0.04450 
0.04450 
0.04550 
0.04550 
-0.00950 
-0.00950 
-0.10700 
-0.10700 
-0.11050 
-0.11050 
0.10750 
0.10750 
-0.00050 
-0.00050 
0.03600 
0.03600 
0.06450 
0.06450 
0.05950 
0.05950 
0.00150 
0.00150 
0.17150 
0.17150 
-0.14050 
-0.14050 
0.20400 
0.20400 
0.00200 
0.00200 
0.02850 
0.02850 
-0.09600 
-0.09600 
-0.13050 
-0.13050 
0.19550 
0.19550 
0.09850 
0.09850 
0.09350 
0.09350 
-0.00700 
-0.00700 
0.01150 
0.01150 
0.01600 
0.01600 
0.03950 
0.03950 
0.03850 
0.03850 
0.03250 
0.03250 
0.17850 
0.17850 
0.09250 
0.09250 
0.04800 
0.04800 
-0.05400 
-0.05400 
0.00150 
0.00150 
-0.02350 
-0.02350 
0.03750 
0.03750 
-0.03300 
-0.03300 
0.02050 
0.02050 
0.02050 
0.02050 
0.07600 
0.07600 
0.05100 
0.05100 
-0.03900 
-0.03900 
-0.04550 
-0.04550 
-0.06800 
-0.06800 
0.02650 
0.02650 
0.06950 
0.06950 
0.06600 
0.06600 
-0.01850 
-0.01850 
0.06950 
0.06950 
0.08950 
0.08950 
-0.05500 
-0.05500 
-0.02400 
-0.02400 
0.12000 
0.12000 
-0.04200 
-0.04200 
0.07050 
0.07050 