# vtk DataFile Version 2.1 
Trajects from timestep 157 with color option 
ASCII 
 
DATASET POLYDATA POINTS 944 float 
0.500 5.187 -70.784 
0.599 5.298 -71.147 
0.690 4.201 -72.489 
0.785 4.350 -72.780 
-0.685 10.451 -72.002 
-0.776 10.531 -71.983 
0.304 -1.066 -70.527 
0.475 -0.779 -70.690 
9.063 3.726 -71.974 
9.386 3.809 -72.397 
-0.870 7.586 -68.942 
-0.996 7.706 -69.072 
-2.313 -4.593 -71.304 
-2.329 -4.333 -71.391 
-0.416 1.500 -66.994 
-0.361 1.767 -67.039 
1.862 -1.951 -70.285 
2.100 -1.701 -70.523 
-2.744 2.570 -68.456 
-2.671 2.804 -68.710 
-4.527 7.414 -67.772 
-4.648 7.566 -67.863 
-2.776 -0.865 -71.042 
-2.785 -0.611 -71.258 
7.070 -4.663 -67.337 
7.337 -4.507 -67.617 
8.190 10.254 -72.898 
8.290 10.222 -73.067 
3.890 -12.089 -73.262 
4.093 -11.927 -73.261 
1.090 7.159 -75.312 
1.083 7.312 -75.389 
4.664 1.274 -75.030 
4.859 1.416 -75.354 
-9.283 5.375 -69.883 
-9.214 5.601 -70.126 
4.904 3.291 -67.890 
5.054 3.511 -68.370 
5.582 3.170 -64.801 
5.546 3.463 -65.158 
-7.945 0.330 -69.033 
-7.836 0.623 -69.283 
-7.261 6.489 -72.466 
-7.167 6.776 -72.805 
-1.151 -2.851 -71.420 
-1.130 -2.549 -71.555 
7.759 -8.883 -72.600 
7.924 -8.931 -72.742 
0.596 5.577 -65.778 
0.698 5.702 -66.013 
-3.088 3.046 -71.298 
-2.923 3.393 -71.613 
0.070 11.105 -71.501 
-0.083 11.188 -71.556 
2.195 -2.360 -67.401 
2.517 -2.154 -67.806 
1.704 -6.686 -70.552 
1.956 -6.541 -70.783 
1.217 6.352 -71.310 
1.200 6.377 -71.607 
2.527 8.955 -69.758 
2.420 8.946 -69.736 
-8.995 -7.273 -74.008 
-8.919 -7.145 -74.129 
2.169 7.677 -67.147 
2.143 7.674 -67.263 
13.505 3.559 -67.992 
13.556 3.738 -68.156 
-7.488 -4.966 -71.386 
-7.367 -4.843 -71.625 
3.167 -7.144 -74.787 
3.357 -7.103 -74.962 
2.022 -0.501 -68.139 
2.302 -0.123 -68.195 
1.215 9.398 -73.062 
1.192 9.542 -73.179 
-2.251 -3.492 -71.247 
-2.245 -3.208 -71.303 
-5.596 0.018 -76.244 
-5.572 0.291 -76.281 
5.180 -0.891 -67.222 
5.284 -0.873 -67.353 
8.665 -3.542 -69.179 
8.983 -3.367 -69.700 
-0.257 8.644 -72.847 
-0.190 8.720 -72.819 
-7.463 2.716 -74.016 
-7.218 2.857 -74.138 
-8.592 -3.789 -73.895 
-8.523 -3.720 -74.040 
-1.451 3.828 -67.575 
-1.288 3.926 -67.939 
-0.690 -7.548 -70.352 
-0.606 -7.437 -70.521 
3.326 7.802 -73.572 
3.490 7.883 -73.625 
6.433 -6.950 -71.865 
6.567 -6.851 -72.150 
5.908 -0.168 -68.618 
6.051 -0.114 -69.004 
4.371 0.190 -70.936 
4.639 0.463 -71.231 
9.836 9.888 -68.389 
9.935 9.812 -68.410 
5.172 2.246 -66.915 
5.232 2.419 -67.282 
-7.888 -4.749 -65.909 
-7.591 -4.535 -66.075 
-5.188 4.383 -73.992 
-5.043 4.605 -74.332 
-4.295 -4.170 -68.793 
-4.113 -3.951 -69.164 
-9.920 -10.393 -72.201 
-9.618 -10.178 -72.263 
-13.960 -3.895 -73.784 
-14.009 -3.505 -73.986 
-13.705 8.763 -69.335 
-13.703 9.004 -69.588 
-7.871 8.660 -69.938 
-7.925 8.821 -70.097 
14.444 8.769 -70.873 
14.574 8.879 -71.165 
-0.426 -6.340 -71.941 
-0.278 -6.184 -72.157 
4.381 10.899 -67.269 
4.340 10.997 -67.163 
4.525 -10.259 -70.198 
4.683 -10.143 -70.365 
-1.211 6.370 -67.433 
-1.031 6.543 -67.683 
-10.460 3.970 -68.392 
-10.187 4.075 -68.440 
-8.666 9.683 -72.269 
-8.660 9.923 -72.464 
-4.922 6.576 -68.170 
-4.924 6.748 -68.408 
-8.682 8.502 -65.768 
-8.755 8.582 -65.892 
1.713 1.015 -70.666 
1.974 1.060 -70.777 
16.311 4.252 -69.958 
16.456 4.464 -70.074 
-8.939 8.392 -72.384 
-9.008 8.706 -72.664 
9.498 -2.004 -71.524 
9.713 -1.870 -72.093 
1.175 -6.183 -74.739 
1.313 -6.154 -74.925 
-6.582 11.498 -64.410 
-6.750 11.692 -64.338 
4.323 -6.471 -72.203 
4.449 -6.464 -72.200 
6.957 2.401 -66.752 
6.933 2.500 -67.095 
4.180 6.105 -70.549 
4.220 6.257 -70.812 
-3.493 -8.668 -68.398 
-3.551 -8.705 -68.484 
-14.137 -4.603 -77.497 
-14.211 -4.413 -77.595 
6.137 6.822 -65.211 
6.484 7.057 -65.314 
-8.811 10.211 -67.385 
-8.841 10.331 -67.602 
7.172 1.185 -65.289 
7.166 1.357 -65.583 
-1.061 8.227 -68.008 
-1.220 8.354 -67.974 
9.726 0.456 -65.317 
9.878 0.730 -65.595 
-13.953 5.635 -66.670 
-13.875 5.909 -66.509 
8.004 12.225 -70.474 
7.989 12.168 -70.392 
-6.424 -12.412 -67.461 
-6.207 -12.265 -67.416 
-6.558 1.758 -68.320 
-6.369 2.096 -68.525 
6.411 3.970 -74.106 
6.567 4.078 -74.477 
2.611 12.220 -71.598 
2.353 12.073 -71.623 
-10.780 2.932 -62.522 
-10.592 3.125 -62.537 
-1.738 12.610 -63.506 
-1.876 12.689 -63.340 
13.802 4.690 -71.165 
13.828 5.011 -71.360 
-5.546 -3.012 -69.870 
-5.470 -2.792 -70.262 
-11.715 12.112 -66.782 
-11.584 12.279 -66.769 
-4.213 -6.047 -68.530 
-4.176 -5.797 -68.667 
11.601 1.441 -69.160 
11.495 1.557 -69.349 
1.477 5.109 -66.713 
1.541 5.173 -66.954 
-13.930 9.626 -69.934 
-13.768 9.938 -70.270 
-11.223 -1.800 -75.442 
-11.198 -1.581 -75.679 
-5.560 -3.100 -68.462 
-5.509 -2.949 -68.839 
8.792 12.813 -68.198 
8.643 12.621 -67.907 
1.233 -11.657 -71.323 
1.404 -11.533 -71.315 
12.553 2.548 -67.588 
12.561 2.631 -67.632 
11.564 8.591 -68.979 
11.600 8.701 -69.100 
-2.242 -12.270 -69.271 
-2.161 -12.226 -69.277 
-10.222 2.905 -67.865 
-9.925 3.193 -67.936 
1.371 5.845 -65.839 
1.398 5.947 -66.043 
-1.637 1.741 -75.231 
-1.414 1.918 -75.594 
-13.024 5.697 -69.157 
-12.692 5.806 -69.276 
-10.147 6.291 -76.471 
-10.057 6.422 -76.644 
3.351 -9.646 -62.961 
3.300 -9.589 -63.043 
-9.000 13.133 -64.819 
-9.074 13.356 -64.822 
10.658 3.740 -68.230 
10.883 3.703 -68.405 
1.701 -5.147 -63.023 
1.715 -5.234 -63.518 
1.472 1.757 -74.881 
1.515 1.939 -75.230 
-8.433 -10.365 -67.611 
-8.195 -10.166 -67.501 
11.669 -1.979 -68.240 
11.871 -1.939 -68.594 
-7.501 12.752 -63.160 
-7.589 12.982 -62.989 
8.337 -6.485 -65.214 
8.567 -6.384 -65.603 
5.309 -1.995 -67.236 
5.399 -2.017 -67.533 
8.485 -0.881 -71.667 
8.707 -0.664 -72.216 
3.563 5.525 -66.768 
3.600 5.532 -66.948 
-0.318 10.445 -62.777 
-0.368 10.540 -62.838 
6.473 -2.194 -75.528 
6.574 -2.124 -75.952 
1.460 -6.837 -67.246 
1.446 -6.790 -67.498 
-3.525 5.849 -63.339 
-3.295 6.041 -63.450 
4.563 -0.906 -66.878 
4.690 -0.855 -66.988 
3.181 6.496 -66.067 
3.282 6.570 -66.263 
13.051 5.470 -67.825 
13.107 5.609 -67.861 
16.307 0.589 -68.741 
16.278 0.826 -68.826 
-0.733 -2.826 -62.819 
-0.451 -2.602 -63.341 
12.069 -11.822 -71.298 
12.147 -11.885 -71.451 
-12.016 0.173 -69.327 
-11.634 0.373 -69.685 
-4.347 12.290 -69.912 
-4.490 12.380 -69.862 
1.942 2.983 -63.118 
2.026 3.065 -63.467 
2.557 3.004 -62.633 
2.517 3.059 -62.890 
2.175 1.093 -76.657 
2.423 1.310 -76.836 
3.601 -10.567 -63.497 
3.544 -10.434 -63.380 
8.609 2.602 -67.749 
8.667 2.620 -68.059 
-1.710 -2.138 -64.153 
-1.532 -1.967 -64.695 
14.630 2.117 -71.442 
14.656 2.359 -71.477 
3.684 11.153 -71.889 
3.548 10.994 -71.894 
12.306 -4.103 -69.935 
12.459 -3.987 -70.287 
4.385 7.272 -62.089 
4.510 7.367 -62.215 
1.217 5.074 -62.324 
1.168 5.256 -62.613 
14.650 5.766 -67.356 
14.757 5.956 -67.544 
-2.738 -0.487 -65.548 
-2.525 -0.336 -65.775 
3.583 0.006 -71.416 
3.953 0.321 -71.517 
-12.881 8.221 -75.023 
-12.801 8.429 -75.087 
4.274 6.206 -72.510 
4.379 6.267 -72.686 
13.123 -2.423 -70.085 
13.212 -2.244 -70.296 
1.546 -3.583 -63.586 
1.701 -3.579 -64.085 
0.853 -6.663 -64.335 
0.831 -6.520 -64.738 
8.059 2.719 -65.871 
8.056 2.722 -66.110 
-8.626 10.473 -65.966 
-8.645 10.610 -66.049 
13.877 1.997 -68.250 
13.834 2.189 -68.367 
10.618 2.320 -65.557 
10.628 2.428 -65.724 
1.023 -3.752 -66.006 
1.220 -3.651 -66.519 
11.024 -7.276 -70.178 
11.200 -7.248 -70.295 
-12.532 7.329 -65.975 
-12.667 7.549 -66.132 
3.626 -8.216 -68.829 
3.895 -8.024 -68.814 
9.174 2.632 -70.040 
9.370 2.768 -70.363 
9.319 7.263 -63.792 
9.458 7.302 -63.784 
5.807 3.564 -69.657 
5.905 3.936 -70.171 
-14.646 11.279 -71.265 
-14.529 11.594 -71.556 
-5.544 -7.982 -73.655 
-5.551 -7.927 -73.967 
12.166 -11.417 -68.534 
12.241 -11.502 -68.679 
-1.047 5.429 -70.306 
-0.918 5.616 -70.541 
-0.491 11.132 -72.838 
-0.590 11.231 -72.821 
13.639 -12.467 -69.859 
13.846 -12.511 -70.056 
-3.077 4.562 -64.636 
-2.912 4.656 -64.826 
4.285 -2.560 -68.599 
4.530 -2.225 -68.955 
-13.891 -5.791 -72.877 
-13.789 -5.577 -73.127 
7.264 3.820 -71.851 
7.498 4.004 -72.238 
-5.532 -9.816 -73.832 
-5.436 -9.752 -73.936 
1.212 5.328 -66.781 
1.261 5.427 -66.918 
7.626 -1.586 -69.943 
7.914 -1.444 -70.400 
-8.637 -11.888 -75.151 
-8.553 -12.004 -75.128 
14.996 5.470 -67.688 
15.076 5.672 -67.912 
-13.552 -5.601 -74.207 
-13.489 -5.352 -74.265 
8.161 -0.754 -71.657 
8.357 -0.536 -72.167 
6.376 -11.852 -71.694 
6.612 -11.784 -71.774 
-8.290 -5.773 -72.866 
-8.221 -5.766 -73.074 
-7.543 5.334 -75.373 
-7.376 5.462 -75.565 
2.568 -5.686 -65.970 
2.721 -5.724 -66.398 
2.289 10.487 -67.252 
2.178 10.449 -67.157 
13.861 5.464 -66.690 
13.984 5.630 -66.853 
8.751 -12.216 -71.369 
8.893 -12.128 -71.513 
-1.660 10.903 -65.091 
-1.790 10.984 -64.879 
-7.631 0.238 -65.326 
-7.320 0.425 -65.443 
0.753 -2.386 -73.612 
0.947 -2.309 -73.812 
11.193 -1.623 -69.240 
11.350 -1.567 -69.574 
-0.520 1.601 -76.187 
-0.383 1.719 -76.606 
11.489 11.704 -69.045 
11.672 11.640 -69.193 
3.909 -8.243 -62.165 
3.870 -8.115 -62.226 
-8.843 -7.323 -70.951 
-8.697 -6.985 -71.083 
-10.462 8.973 -66.835 
-10.507 9.004 -66.959 
15.299 -4.263 -69.051 
15.415 -4.269 -69.318 
16.539 -1.100 -67.571 
16.418 -0.943 -67.637 
7.526 10.547 -72.196 
7.576 10.525 -72.309 
16.479 3.236 -68.682 
16.595 3.481 -68.820 
6.397 12.381 -64.794 
6.302 12.339 -64.626 
13.248 7.364 -67.295 
13.306 7.642 -67.500 
-0.883 11.506 -67.599 
-1.138 11.620 -67.481 
-2.734 -6.306 -64.433 
-2.447 -6.226 -65.013 
-9.810 10.498 -71.228 
-9.768 10.626 -71.414 
-10.996 -8.648 -73.370 
-10.779 -8.496 -73.647 
3.359 -7.651 -65.502 
3.324 -7.530 -65.655 
-3.015 -5.427 -69.808 
-3.062 -5.095 -70.174 
0.902 -5.517 -70.812 
1.094 -5.458 -71.058 
13.470 -5.280 -68.885 
13.747 -5.327 -69.282 
3.988 -4.942 -64.565 
4.134 -4.897 -65.164 
-12.852 -0.955 -65.362 
-12.665 -0.678 -65.387 
14.972 10.331 -63.649 
15.088 10.372 -63.698 
11.903 4.809 -73.942 
12.123 5.058 -74.345 
-3.473 9.415 -68.331 
-3.585 9.498 -68.256 
5.769 6.279 -62.554 
5.841 6.283 -62.619 
2.621 -12.806 -67.941 
2.913 -12.860 -67.814 
-0.407 8.795 -69.914 
-0.442 8.994 -69.985 
-11.363 -4.811 -77.631 
[...]
POINT_DATA 944 
SCALARS Umean double 1 
LOOKUP_TABLE default
0.19614 
0.19614 
0.17023 
0.17023 
0.06132 
0.06132 
0.18586 
0.18586 
0.26933 
0.26933 
0.10860 
0.10860 
0.13732 
0.13732 
0.13815 
0.13815 
0.20964 
0.20964 
0.17649 
0.17649 
0.10727 
0.10727 
0.16677 
0.16677 
0.20858 
0.20858 
0.09948 
0.09948 
0.12986 
0.12986 
0.08571 
0.08571 
0.20197 
0.20197 
0.16947 
0.16947 
0.27445 
0.27445 
0.23162 
0.23162 
0.20014 
0.20014 
0.22701 
0.22701 
0.16573 
0.16573 
0.11146 
0.11146 
0.14253 
0.14253 
0.24842 
0.24842 
0.09127 
0.09127 
0.27845 
0.27845 
0.18567 
0.18567 
0.14927 
0.14927 
0.05480 
0.05480 
0.09592 
0.09592 
0.05946 
0.05946 
0.12403 
0.12403 
0.14739 
0.14739 
0.13077 
0.13077 
0.23686 
0.23686 
0.09348 
0.09348 
0.14477 
0.14477 
0.13827 
0.13827 
0.08411 
0.08411 
0.31749 
0.31749 
0.05256 
0.05256 
0.15394 
0.15394 
0.08739 
0.08739 
0.20535 
0.20535 
0.10947 
0.10947 
0.09522 
0.09522 
0.16506 
0.16506 
0.20758 
0.20758 
0.24155 
0.24155 
0.06328 
0.06328 
0.20507 
0.20507 
0.20097 
0.20097 
0.21559 
0.21559 
0.23384 
0.23384 
0.18793 
0.18793 
0.22097 
0.22097 
0.17471 
0.17471 
0.11632 
0.11632 
0.16901 
0.16901 
0.15239 
0.15239 
0.07503 
0.07503 
0.12875 
0.12875 
0.17666 
0.17666 
0.14820 
0.14820 
0.15465 
0.15465 
0.14683 
0.14683 
0.08232 
0.08232 
0.14359 
0.14359 
0.14091 
0.14091 
0.21316 
0.21316 
0.31142 
0.31142 
0.11671 
0.11671 
0.13327 
0.13327 
0.06311 
0.06311 
0.17890 
0.17890 
0.15319 
0.15319 
0.05507 
0.05507 
0.11311 
0.11311 
0.21578 
0.21578 
0.12489 
0.12489 
0.17033 
0.17033 
0.10316 
0.10316 
0.20944 
0.20944 
0.16362 
0.16362 
0.05049 
0.05049 
0.13297 
0.13297 
0.21908 
0.21908 
0.20835 
0.20835 
0.14899 
0.14899 
0.13492 
0.13492 
0.11494 
0.11494 
0.18824 
0.18824 
0.22795 
0.22795 
0.10632 
0.10632 
0.14373 
0.14373 
0.12290 
0.12290 
0.12872 
0.12872 
0.24315 
0.24315 
0.16183 
0.16183 
0.20465 
0.20465 
0.18957 
0.18957 
0.10569 
0.10569 
0.04714 
0.04714 
0.08372 
0.08372 
0.04619 
0.04619 
0.20988 
0.20988 
0.11484 
0.11484 
0.23067 
0.23067 
0.18457 
0.18457 
0.11746 
0.11746 
0.05607 
0.05607 
0.11749 
0.11749 
0.14372 
0.14372 
0.25139 
0.25139 
0.19797 
0.19797 
0.16458 
0.16458 
0.20477 
0.20477 
0.14990 
0.14990 
0.23153 
0.23153 
0.15556 
0.15556 
0.31535 
0.31535 
0.09195 
0.09195 
0.06174 
0.06174 
0.22072 
0.22072 
0.12836 
0.12836 
0.15975 
0.15975 
0.08779 
0.08779 
0.11629 
0.11629 
0.07706 
0.07706 
0.12672 
0.12672 
0.31709 
0.31709 
0.09146 
0.09146 
0.28022 
0.28022 
0.08810 
0.08810 
0.18411 
0.18411 
0.13292 
0.13292 
0.18751 
0.18751 
0.09304 
0.09304 
0.15795 
0.15795 
0.29778 
0.29778 
0.12295 
0.12295 
0.10464 
0.10464 
0.20048 
0.20048 
0.10066 
0.10066 
0.17252 
0.17252 
0.14396 
0.14396 
0.17299 
0.17299 
0.24816 
0.24816 
0.11593 
0.11593 
0.10691 
0.10691 
0.14533 
0.14533 
0.26127 
0.26127 
0.21409 
0.21409 
0.11952 
0.11952 
0.08065 
0.08065 
0.11446 
0.11446 
0.09957 
0.09957 
0.27936 
0.27936 
0.10659 
0.10659 
0.15106 
0.15106 
0.16542 
0.16542 
0.20077 
0.20077 
0.07229 
0.07229 
0.32101 
0.32101 
0.22226 
0.22226 
0.15844 
0.15844 
0.09203 
0.09203 
0.16343 
0.16343 
0.07052 
0.07052 
0.14456 
0.14456 
0.13431 
0.13431 
0.27340 
0.27340 
0.17226 
0.17226 
0.24412 
0.24412 
0.07767 
0.07767 
0.08799 
0.08799 
0.27927 
0.27927 
0.07253 
0.07253 
0.15603 
0.15603 
0.13166 
0.13166 
0.29413 
0.29413 
0.12915 
0.12915 
0.10963 
0.10963 
0.14242 
0.14242 
0.22806 
0.22806 
0.07548 
0.07548 
0.13158 
0.13158 
0.11028 
0.11028 
0.13077 
0.13077 
0.19064 
0.19064 
0.14454 
0.14454 
0.18664 
0.18664 
0.22817 
0.22817 
0.12195 
0.12195 
0.07353 
0.07353 
0.19557 
0.19557 
0.06775 
0.06775 
0.14559 
0.14559 
0.10446 
0.10446 
0.06276 
0.06276 
0.15209 
0.15209 
0.09876 
0.09876 
0.17512 
0.17512 
0.15161 
0.15161 
0.32602 
0.32602 
0.11483 
0.11483 
0.19165 
0.19165 
0.09909 
0.09909 
0.24819 
0.24819 
0.15879 
0.15879 
0.24318 
0.24318 
0.30909 
0.30909 
0.16757 
0.16757 
0.06622 
0.06622 
0.26116 
0.26116 
0.07915 
0.07915 
0.04854 
0.04854 
0.16148 
0.16148 
0.10708 
0.10708 
0.11241 
0.11241 
0.21840 
0.21840 
0.18278 
0.18278 
0.07748 
0.07748 
0.09101 
0.09101 
0.21904 
0.21904 
0.15884 
0.15884 
0.27678 
0.27678 
0.23093 
0.23093 
0.14653 
0.14653 
0.24592 
0.24592 
0.15476 
0.15476 
0.11401 
0.11401 
0.19297 
0.19297 
0.15308 
0.15308 
0.05840 
0.05840 
0.07355 
0.07355 
0.16552 
0.16552 
0.10901 
0.10901 
0.18986 
0.18986 
0.17095 
0.17095 
0.05648 
0.05648 
0.09427 
0.09427 
0.05395 
0.05395 
0.21161 
0.21161 
0.24207 
0.24207 
0.13855 
0.13855 
0.33073 
0.33073 
0.06196 
0.06196 
0.13021 
0.13021 
0.11621 
0.11621 
0.17276 
0.17276 
0.11920 
0.11920 
0.21067 
0.21067 
0.17817 
0.17817 
0.24807 
0.24807 
0.12155 
0.12155 
0.21063 
0.21063 
0.05234 
0.05234 
0.09955 
0.09955 
0.12101 
0.12101 
0.11763 
0.11763 
0.09878 
0.09878 
0.19585 
0.19585 
0.17161 
0.17161 
0.23498 
0.23498 
0.08586 
0.08586 
0.13590 
0.13590 
0.14649 
0.14649 
0.13099 
0.13099 
0.14622 
0.14622 
0.20572 
0.20572 
0.27518 
0.27518 
0.04512 
0.04512 
0.30198 
0.30198 
0.13219 
0.13219 
0.23400 
0.23400 
0.13883 
0.13883 
0.12612 
0.12612 
0.24095 
0.24095 
0.10671 
0.10671 
0.12654 
0.12654 
0.14199 
0.14199 
0.20805 
0.20805 
0.12742 
0.12742 
0.11186 
0.11186 
0.18165 
0.18165 
0.16723 
0.16723 
0.15285 
0.15285 
0.14767 
0.14767 
0.12212 
0.12212 
0.08578 
0.08578 
0.18904 
0.18904 
0.12446 
0.12446 
0.13745 
0.13745 
0.17874 
0.17874 
0.21458 
0.21458 
0.13172 
0.13172 
0.28560 
0.28560 
0.15314 
0.15314 
0.20262 
0.20262 
0.15067 
0.15067 
0.13952 
0.13952 
0.18677 
0.18677 
0.11453 
0.11453 
0.04182 
0.04182 
0.07793 
0.07793 
0.10871 
0.10871 
0.13353 
0.13353 
0.08038 
0.08038 
0.16841 
0.16841 
0.04683 
0.04683 
0.17869 
0.17869 
0.24985 
0.24985 
0.09542 
0.09542 
0.07421 
0.07421 
0.19117 
0.19117 
0.09825 
0.09825 
0.16133 
0.16133 
0.17894 
0.17894 
0.05115 
0.05115 
0.10702 
0.10702 
0.05341 
0.05341 
0.11093 
0.11093 
0.11369 
0.11369 
0.10804 
0.10804 
0.23171 
0.23171 
0.14361 
0.14361 
0.19980 
0.19980 
0.28876 
0.28876 
0.20166 
0.20166 
0.08138 
0.08138 
0.10869 
0.10869 
0.09040 
0.09040 
0.14495 
0.14495 
0.08892 
0.08892 
0.14357 
0.14357 
0.08716 
0.08716 
0.22193 
0.22193 
0.17378 
0.17378 
0.08349 
0.08349 
0.11563 
0.11563 
0.08134 
0.08134 
0.14462 
0.14462 
0.15914 
0.15914 
0.11289 
0.11289 
0.13248 
0.13248 
0.21813 
0.21813 
0.11805 
0.11805 
0.13116 
0.13116 
0.24581 
0.24581 
0.12789 
0.12789 
0.11178 
0.11178 
0.08968 
0.08968 
0.30812 
0.30812 
0.20006 
0.20006 
0.08427 
0.08427 
0.10265 
0.10265 
0.10741 
0.10741 
0.16212 
0.16212 
0.09922 
0.09922 
0.19310 
0.19310 
0.20498 
0.20498 
0.14884 
0.14884 
0.13190 
0.13190 
0.15337 
0.15337 
0.16163 
0.16163 
0.13046 
0.13046 
0.31059 
0.31059 
0.09102 
0.09102 
0.05985 
0.05985 
0.18602 
0.18602 
0.12509 
0.12509 
0.19434 
0.19434 
0.05675 
0.05675 
0.21720 
0.21720 
0.13224 
0.13224 
0.16938 
0.16938 
0.12250 
0.12250 
0.21945 
0.21945 
0.07071 
0.07071 
0.12011 
0.12011 
0.20733 
0.20733 
0.11953 
0.11953 
0.10662 
0.10662 
0.24384 
0.24384 
0.07964 
0.07964 
0.18668 
0.18668 
0.13496 
0.13496 
0.21486 
0.21486 
0.14132 
0.14132 
0.10260 
0.10260 
0.05645 
0.05645 
0.04126 
0.04126 
0.25298 
0.25298 
0.07053 
0.07053 
0.15695 
0.15695 
0.09167 
0.09167 
0.07898 
0.07898 
0.12442 
0.12442 
0.11188 
0.11188 
0.21129 
0.21129 
0.21641 
0.21641 
0.07621 
0.07621 
0.27014 
0.27014 
0.11393 
0.11393 
0.22765 
0.22765 
0.11447 
0.11447 
0.10469 
0.10469 
0.20736 
0.20736 
0.11441 
0.11441 
0.23177 
0.23177 
0.08422 
0.08422 
0.14032 
0.14032 
0.19469 
0.19469 
0.11510 
0.11510 
0.05825 
0.05825 
0.09305 
0.09305 
0.15010 
0.15010 
0.06327 
0.06327 
0.17609 
0.17609 
0.32064 
0.32064 
0.27940 
0.27940 
0.34426 
0.34426 
0.24413 
0.24413 
0.12309 
0.12309 
0.11146 
0.11146 
0.10240 
0.10240 
0.13235 
0.13235 
0.06928 
0.06928 
0.04424 
0.04424 
0.10223 
0.10223 
0.12838 
0.12838 
0.18489 
0.18489 
0.07741 
0.07741 
0.06028 
0.06028 
0.08074 
0.08074 
0.12683 
0.12683 
0.11096 
0.11096 
0.20801 
0.20801 
0.21194 
0.21194 
0.10960 
0.10960 
0.10638 
0.10638 
0.07788 
0.07788 
0.20047 
0.20047 
0.20365 
0.20365 
0.12577 
0.12577 
0.18069 
0.18069 
0.20717 
0.20717 
0.20316 
0.20316 
0.19432 
0.19432 
0.10604 
0.10604 
0.15102 
0.15102 
0.12324 
0.12324 
0.19297 
0.19297 
0.12034 
0.12034 
0.14148 
0.14148 
0.18326 
0.18326 
0.07238 
0.07238 
0.09212 
0.09212 
0.09842 
0.09842 
0.09002 
0.09002 
0.17569 
0.17569 
0.20195 
0.20195 
0.17598 
0.17598 
0.20671 
0.20671 
0.24044 
0.24044 
0.15974 
0.15974 
0.26858 
0.26858 
0.11872 
0.11872 
0.16496 
0.16496 
SCALARS Umean_X double 1 
LOOKUP_TABLE default
0.04950 
0.04950 
0.04750 
0.04750 
-0.04550 
-0.04550 
0.08550 
0.08550 
0.16150 
0.16150 
-0.06300 
-0.06300 
-0.00800 
-0.00800 
0.02750 
0.02750 
0.11900 
0.11900 
0.03650 
0.03650 
-0.06050 
-0.06050 
-0.00450 
-0.00450 
0.13350 
0.13350 
0.05000 
0.05000 
0.10150 
0.10150 
-0.00350 
-0.00350 
0.09750 
0.09750 
0.03450 
0.03450 
0.07500 
0.07500 
-0.01800 
-0.01800 
0.05450 
0.05450 
0.04700 
0.04700 
0.01050 
0.01050 
0.08250 
0.08250 
0.05100 
0.05100 
0.08250 
0.08250 
-0.07650 
-0.07650 
0.16100 
0.16100 
0.12600 
0.12600 
-0.00850 
-0.00850 
-0.05350 
-0.05350 
0.03800 
0.03800 
-0.01300 
-0.01300 
0.02550 
0.02550 
0.06050 
0.06050 
0.09500 
0.09500 
0.14000 
0.14000 
-0.01150 
-0.01150 
0.00300 
0.00300 
0.01200 
0.01200 
0.05200 
0.05200 
0.15900 
0.15900 
0.03350 
0.03350 
0.12250 
0.12250 
0.03450 
0.03450 
0.08150 
0.08150 
0.04200 
0.04200 
0.08200 
0.08200 
0.06700 
0.06700 
0.07150 
0.07150 
0.13400 
0.13400 
0.04950 
0.04950 
0.03000 
0.03000 
0.14850 
0.14850 
0.07250 
0.07250 
0.09100 
0.09100 
0.15100 
0.15100 
-0.02450 
-0.02450 
0.00100 
0.00100 
-0.02700 
-0.02700 
0.06500 
0.06500 
0.07400 
0.07400 
-0.02050 
-0.02050 
0.07900 
0.07900 
0.09000 
0.09000 
0.13650 
0.13650 
0.00300 
0.00300 
-0.00100 
-0.00100 
-0.03650 
-0.03650 
0.13050 
0.13050 
0.07250 
0.07250 
-0.03450 
-0.03450 
0.10750 
0.10750 
0.06900 
0.06900 
-0.08400 
-0.08400 
0.06300 
0.06300 
-0.01200 
-0.01200 
0.02000 
0.02000 
-0.02900 
-0.02900 
-0.03700 
-0.03700 
0.17350 
0.17350 
-0.01500 
-0.01500 
-0.00300 
-0.00300 
-0.07950 
-0.07950 
0.07600 
0.07600 
0.03900 
0.03900 
-0.00750 
-0.00750 
0.10850 
0.10850 
0.09450 
0.09450 
0.07800 
0.07800 
-0.12900 
-0.12900 
0.09400 
0.09400 
-0.06900 
-0.06900 
0.01300 
0.01300 
0.03800 
0.03800 
0.06550 
0.06550 
0.01850 
0.01850 
-0.05300 
-0.05300 
0.03200 
0.03200 
0.08100 
0.08100 
0.01250 
0.01250 
0.02550 
0.02550 
-0.07450 
-0.07450 
0.08550 
0.08550 
0.00400 
0.00400 
0.01800 
0.01800 
0.04050 
0.04050 
0.14850 
0.14850 
0.01350 
0.01350 
0.11150 
0.11150 
0.16600 
0.16600 
0.04500 
0.04500 
-0.02550 
-0.02550 
-0.03700 
-0.03700 
0.11250 
0.11250 
0.00700 
0.00700 
0.02150 
0.02150 
0.11900 
0.11900 
0.10100 
0.10100 
-0.04400 
-0.04400 
0.11500 
0.11500 
0.04500 
0.04500 
0.11100 
0.11100 
0.01850 
0.01850 
-0.02500 
-0.02500 
0.05050 
0.05050 
-0.00700 
-0.00700 
0.11500 
0.11500 
0.06350 
0.06350 
0.05050 
0.05050 
0.02800 
0.02800 
-0.01450 
-0.01450 
0.14100 
0.14100 
0.03900 
0.03900 
0.19100 
0.19100 
-0.07150 
-0.07150 
0.04200 
0.04200 
-0.02000 
-0.02000 
0.12400 
0.12400 
-0.02850 
-0.02850 
0.02900 
0.02900 
0.08900 
0.08900 
0.01300 
0.01300 
-0.06800 
-0.06800 
0.07650 
0.07650 
0.06250 
0.06250 
-0.02450 
-0.02450 
0.05350 
0.05350 
0.10650 
0.10650 
0.18500 
0.18500 
0.04000 
0.04000 
0.05250 
0.05250 
0.04450 
0.04450 
0.07750 
0.07750 
-0.01100 
-0.01100 
-0.00150 
-0.00150 
-0.00950 
-0.00950 
-0.02150 
-0.02150 
0.00500 
0.00500 
0.09850 
0.09850 
0.08800 
0.08800 
-0.06750 
-0.06750 
0.13450 
0.13450 
0.09800 
0.09800 
0.06950 
0.06950 
0.04900 
0.04900 
0.05850 
0.05850 
-0.00350 
-0.00350 
0.03750 
0.03750 
0.06450 
0.06450 
-0.04950 
-0.04950 
0.10350 
0.10350 
0.08250 
0.08250 
0.12250 
0.12250 
0.05100 
0.05100 
0.11700 
0.11700 
0.04800 
0.04800 
0.02450 
0.02450 
0.14400 
0.14400 
0.04200 
0.04200 
0.04000 
0.04000 
0.03150 
0.03150 
0.09800 
0.09800 
0.11800 
0.11800 
0.03450 
0.03450 
0.08350 
0.08350 
0.07650 
0.07650 
-0.05550 
-0.05550 
0.06150 
0.06150 
0.07100 
0.07100 
-0.06500 
-0.06500 
0.15550 
0.15550 
0.09700 
0.09700 
0.07850 
0.07850 
0.06850 
0.06850 
0.09150 
0.09150 
-0.01950 
-0.01950 
0.07300 
0.07300 
-0.02250 
-0.02250 
0.05800 
0.05800 
-0.06050 
-0.06050 
0.02500 
0.02500 
0.05800 
0.05800 
-0.04750 
-0.04750 
0.02900 
0.02900 
-0.12750 
-0.12750 
0.14350 
0.14350 
0.02100 
0.02100 
0.10850 
0.10850 
-0.01750 
-0.01750 
-0.02350 
-0.02350 
0.09600 
0.09600 
0.13850 
0.13850 
0.07300 
0.07300 
0.09350 
0.09350 
0.05800 
0.05800 
0.11000 
0.11000 
-0.05600 
-0.05600 
0.03600 
0.03600 
0.14600 
0.14600 
-0.01750 
-0.01750 
0.05100 
0.05100 
-0.03050 
-0.03050 
0.12500 
0.12500 
0.03050 
0.03050 
0.00850 
0.00850 
0.09950 
0.09950 
0.09950 
0.09950 
0.06000 
0.06000 
0.08150 
0.08150 
0.05500 
0.05500 
0.08600 
0.08600 
0.03800 
0.03800 
0.00550 
0.00550 
0.11250 
0.11250 
0.04900 
0.04900 
-0.01350 
-0.01350 
-0.00350 
-0.00350 
0.09050 
0.09050 
0.07350 
0.07350 
0.12600 
0.12600 
0.02550 
0.02550 
-0.03350 
-0.03350 
-0.04450 
-0.04450 
0.00950 
0.00950 
0.08150 
0.08150 
0.13750 
0.13750 
0.10350 
0.10350 
0.11100 
0.11100 
-0.00550 
-0.00550 
0.08800 
0.08800 
0.05900 
0.05900 
0.15850 
0.15850 
0.11200 
0.11200 
0.07000 
0.07000 
0.00800 
0.00800 
0.14450 
0.14450 
0.02900 
0.02900 
0.05300 
0.05300 
0.00250 
0.00250 
0.05700 
0.05700 
0.10250 
0.10250 
0.10600 
0.10600 
0.09500 
0.09500 
0.06700 
0.06700 
0.12450 
0.12450 
0.09400 
0.09400 
0.07700 
0.07700 
0.02650 
0.02650 
-0.00750 
-0.00750 
0.00700 
0.00700 
0.08650 
0.08650 
0.05950 
0.05950 
0.16900 
0.16900 
0.00050 
0.00050 
0.13800 
0.13800 
-0.11050 
-0.11050 
0.02700 
0.02700 
0.06800 
0.06800 
0.09550 
0.09550 
0.14950 
0.14950 
-0.01500 
-0.01500 
0.08600 
0.08600 
0.12750 
0.12750 
0.16800 
0.16800 
0.02950 
0.02950 
0.07750 
0.07750 
0.15200 
0.15200 
0.13000 
0.13000 
0.04900 
0.04900 
0.07700 
0.07700 
0.05050 
0.05050 
0.05750 
0.05750 
0.03850 
0.03850 
0.10350 
0.10350 
0.04600 
0.04600 
-0.00950 
-0.00950 
0.03450 
0.03450 
0.09050 
0.09050 
0.11850 
0.11850 
0.07850 
0.07850 
0.11050 
0.11050 
0.13500 
0.13500 
0.12400 
0.12400 
0.00650 
0.00650 
0.06950 
0.06950 
-0.03200 
-0.03200 
0.07650 
0.07650 
0.01000 
0.01000 
-0.00900 
-0.00900 
0.05500 
0.05500 
0.09050 
0.09050 
0.02850 
0.02850 
0.00500 
0.00500 
0.10350 
0.10350 
0.04700 
0.04700 
0.06950 
0.06950 
0.07300 
0.07300 
-0.04600 
-0.04600 
0.15500 
0.15500 
-0.10900 
-0.10900 
0.01800 
0.01800 
-0.01100 
-0.01100 
0.04550 
0.04550 
0.06200 
0.06200 
0.02750 
0.02750 
0.03600 
0.03600 
0.17300 
0.17300 
0.02500 
0.02500 
0.11150 
0.11150 
0.15600 
0.15600 
0.08000 
0.08000 
0.07550 
0.07550 
0.06650 
0.06650 
-0.02700 
-0.02700 
0.03150 
0.03150 
0.07100 
0.07100 
0.07850 
0.07850 
0.07900 
0.07900 
0.13500 
0.13500 
0.09600 
0.09600 
0.08200 
0.08200 
0.03550 
0.03550 
0.03100 
0.03100 
0.00600 
0.00600 
0.04800 
0.04800 
0.07000 
0.07000 
0.08050 
0.08050 
0.06750 
0.06750 
0.06800 
0.06800 
0.06100 
0.06100 
0.07300 
0.07300 
-0.05350 
-0.05350 
0.08150 
0.08150 
-0.05900 
-0.05900 
0.14950 
0.14950 
0.06000 
0.06000 
0.00550 
0.00550 
-0.02650 
-0.02650 
0.10250 
0.10250 
-0.04450 
-0.04450 
0.05900 
0.05900 
0.10100 
0.10100 
0.11150 
0.11150 
0.08000 
0.08000 
0.08000 
0.08000 
-0.05950 
-0.05950 
0.01850 
0.01850 
0.12600 
0.12600 
0.14300 
0.14300 
0.05000 
0.05000 
-0.01950 
-0.01950 
0.13800 
0.13800 
-0.02150 
-0.02150 
0.10950 
0.10950 
0.05150 
0.05150 
0.17650 
0.17650 
0.06000 
0.06000 
0.14600 
0.14600 
-0.02600 
-0.02600 
0.08950 
0.08950 
-0.03500 
-0.03500 
0.09450 
0.09450 
0.12800 
0.12800 
0.08450 
0.08450 
0.05600 
0.05600 
0.18450 
0.18450 
-0.00450 
-0.00450 
0.09350 
0.09350 
0.12550 
0.12550 
0.04850 
0.04850 
-0.02250 
-0.02250 
0.03450 
0.03450 
0.04850 
0.04850 
0.01800 
0.01800 
0.12550 
0.12550 
0.03750 
0.03750 
0.03650 
0.03650 
-0.00050 
-0.00050 
0.06750 
0.06750 
0.07650 
0.07650 
0.06000 
0.06000 
0.03500 
0.03500 
0.10550 
0.10550 
0.03850 
0.03850 
0.12750 
0.12750 
-0.05600 
-0.05600 
0.11200 
0.11200 
0.04250 
0.04250 
0.07300 
0.07300 
0.10700 
0.10700 
0.06850 
0.06850 
0.12750 
0.12750 
-0.01400 
-0.01400 
0.11200 
0.11200 
0.04000 
0.04000 
0.08150 
0.08150 
-0.03350 
-0.03350 
0.01050 
0.01050 
-0.10200 
-0.10200 
0.02150 
0.02150 
0.06200 
0.06200 
0.16300 
0.16300 
0.03250 
0.03250 
0.22350 
0.22350 
0.19000 
0.19000 
0.02350 
0.02350 
0.01400 
0.01400 
0.04450 
0.04450 
0.12600 
0.12600 
-0.01750 
-0.01750 
0.00100 
0.00100 
0.06550 
0.06550 
0.01850 
0.01850 
0.03800 
0.03800 
0.00650 
0.00650 
-0.01500 
-0.01500 
0.07250 
0.07250 
0.00350 
0.00350 
-0.00200 
-0.00200 
0.09100 
0.09100 
0.17800 
0.17800 
0.10050 
0.10050 
-0.05850 
-0.05850 
0.04150 
0.04150 
0.12450 
0.12450 
0.00900 
0.00900 
0.09350 
0.09350 
0.06700 
0.06700 
0.04750 
0.04750 
0.11200 
0.11200 
0.10050 
0.10050 
0.06850 
0.06850 
0.13750 
0.13750 
0.03000 
0.03000 
-0.02600 
-0.02600 
0.01600 
0.01600 
0.09500 
0.09500 
0.07000 
0.07000 
0.03700 
0.03700 
0.06400 
0.06400 
0.02200 
0.02200 
0.03800 
0.03800 
0.10050 
0.10050 
0.06200 
0.06200 
0.14600 
0.14600 
0.16600 
0.16600 
0.13650 
0.13650 
0.15650 
0.15650 
0.14650 
0.14650 
-0.03100 
-0.03100 
0.08050 
0.08050 
SCALARS Umean_Y double 1 
LOOKUP_TABLE default
0.05550 
0.05550 
0.07450 
0.07450 
0.04000 
0.04000 
0.14350 
0.14350 
0.04150 
0.04150 
0.06000 
0.06000 
0.13000 
0.13000 
0.13350 
0.13350 
0.12500 
0.12500 
0.11700 
0.11700 
0.07600 
0.07600 
0.12700 
0.12700 
0.07800 
0.07800 
-0.01600 
-0.01600 
0.08100 
0.08100 
0.07650 
0.07650 
0.07100 
0.07100 
0.11300 
0.11300 
0.11000 
0.11000 
0.14650 
0.14650 
0.14650 
0.14650 
0.14350 
0.14350 
0.15100 
0.15100 
-0.02400 
-0.02400 
0.06250 
0.06250 
0.17350 
0.17350 
0.04150 
0.04150 
0.10300 
0.10300 
0.07250 
0.07250 
0.01250 
0.01250 
-0.00450 
-0.00450 
0.06400 
0.06400 
-0.00150 
-0.00150 
0.08950 
0.08950 
0.06150 
0.06150 
0.02050 
0.02050 
0.18900 
0.18900 
0.07200 
0.07200 
0.14200 
0.14200 
0.13650 
0.13650 
0.00900 
0.00900 
0.08750 
0.08750 
0.03800 
0.03800 
0.07050 
0.07050 
0.03450 
0.03450 
0.04900 
0.04900 
0.05550 
0.05550 
0.04050 
0.04050 
0.04950 
0.04950 
0.02700 
0.02700 
0.13650 
0.13650 
-0.03800 
-0.03800 
0.08650 
0.08650 
0.10700 
0.10700 
0.11100 
0.11100 
0.10950 
0.10950 
0.10750 
0.10750 
0.19500 
0.19500 
0.12050 
0.12050 
0.08050 
0.08050 
0.05500 
0.05500 
0.07800 
0.07800 
0.04900 
0.04900 
0.05800 
0.05800 
0.08650 
0.08650 
0.05250 
0.05250 
0.12000 
0.12000 
0.08600 
0.08600 
0.04000 
0.04000 
0.02250 
0.02250 
0.10600 
0.10600 
0.15700 
0.15700 
0.06700 
0.06700 
0.01450 
0.01450 
0.09700 
0.09700 
0.00350 
0.00350 
0.04950 
0.04950 
0.07600 
0.07600 
-0.01850 
-0.01850 
0.09500 
0.09500 
0.11750 
0.11750 
0.06000 
0.06000 
0.08600 
0.08600 
0.06350 
0.06350 
0.13700 
0.13700 
0.13700 
0.13700 
-0.02850 
-0.02850 
0.07350 
0.07350 
0.16900 
0.16900 
0.05400 
0.05400 
-0.07350 
-0.07350 
0.09650 
0.09650 
0.03950 
0.03950 
0.16050 
0.16050 
0.11000 
0.11000 
0.08350 
0.08350 
0.12500 
0.12500 
0.05800 
0.05800 
0.03200 
0.03200 
0.15600 
0.15600 
0.10950 
0.10950 
0.07550 
0.07550 
-0.09600 
-0.09600 
0.06200 
0.06200 
0.04150 
0.04150 
0.05500 
0.05500 
0.02200 
0.02200 
0.14400 
0.14400 
0.05100 
0.05100 
0.08850 
0.08850 
0.05450 
0.05450 
0.06550 
0.06550 
0.02850 
0.02850 
0.11150 
0.11150 
-0.01850 
-0.01850 
-0.04350 
-0.04350 
0.09100 
0.09100 
0.09950 
0.09950 
0.02000 
0.02000 
0.11500 
0.11500 
0.05050 
0.05050 
-0.01100 
-0.01100 
0.10850 
0.10850 
0.00350 
0.00350 
0.04750 
0.04750 
0.03500 
0.03500 
0.02350 
0.02350 
0.09600 
0.09600 
0.02550 
0.02550 
0.03700 
0.03700 
0.06950 
0.06950 
0.11850 
0.11850 
0.11200 
0.11200 
-0.03150 
-0.03150 
0.10000 
0.10000 
0.04500 
0.04500 
0.04100 
0.04100 
0.02750 
0.02750 
0.10850 
0.10850 
0.06650 
0.06650 
0.00900 
0.00900 
0.08550 
0.08550 
0.12100 
0.12100 
-0.07950 
-0.07950 
0.05800 
0.05800 
0.04750 
0.04750 